 **********************************************************************
                          MRCC program system
 **********************************************************************
 
                              Written by
     Mihaly Kallay, Peter R. Nagy, David Mester, Laszlo Gyevi-Nagy,
        Jozsef Csoka, P. Bernat Szabo, Zoltan Rolik, Gyula Samu,
     Jozsef Csontos, Bence Hegely, Adam Ganyecz, Istvan Ladjanszki,
       Lorant Szegedy, Bence Ladoczki, Klara Petrov, Mate Farkas,
                    Pal D. Mezei, and Reka A. Horvath
 
        Department of Physical Chemistry and Materials Science
            Budapest University of Technology and Economics
                  Budapest P.O.Box 91, H-1521 Hungary
 
                              www.mrcc.hu
 
                     Release date: August 28, 2023

 ************************ 2026-02-26 16:03:08 *************************
 Executing minp...

 Reading input from MINP...
 
 Input file:
 
charge=0
mult=1
calc=LNO-CCSD(T)
basis=aug-cc-pVQZ
symm=off
verbosity=3
unit=angs
scfalg=locfit1
scfmaxit=200
scftol=8
basis_sm=def2-SVP
usedisk=0
aocd=extra
chtol=1d-6
iesttol=0.001
scfiguess=small
lcorthr=vtight
mem=46GB
geom=xyz
4

N      1.04470516527    1.04467805385    1.04472620470
H      1.86198065727    1.39631551807    0.53263274880
H      1.39638040304    0.53260276511    1.86208371977
H      0.53256262530    1.86191282917    1.39633599251
 
 
 Checking keyword combinations...
 
 Keywords:
 
 active=none
 agrid=ld0006-ld0590
 agrid_pssp=ld0006-ld0194
 agrid_pssp_sm=ld0006-ld0074
 basis=aug-cc-pvqz
 basis_sm=def2-svp
 basopt=off
 bfbasis=none
 bfgsmem=10
 bfgstol=1.0d-3
 boysalg=jacobi
 bpcompo=0.985
 bpcompv=0.98
 bpdfo=0.985
 bpocc=0.99999d0
 bppdo=0.999d0
 bppdv=0.98
 bpedo=0.99999d0
 bpedv=0.995d0
 calc=ccsd(t)
 ccmaxit=50
 ccprog=ccsd
 ccsdalg=dfdirect
 ccsdmkl=seq
 ccsdrest=off
 ccsdthreads=2
 cctol=5
 charge=0
 cialg=direct
 ciguess=off
 cmpgrp=auto
 comprest=off
 coord_sys=ric
 core=frozen
 corembed=off
 csapprox=off
 cvs=off
 dboc=off
 delocsomofact=
 dendec=cholesky
 dens=0
 denscorr=0
 dfalg=lineq
 dfbasis_cab=none
 dfbasis_cor=auto
 dfbasis_scf=auto
 dfbasis_scf_sm=auto
 dfintran=drpa
 dft=off
 dhexc=adc(2)
 diag=david
 docc=
 domrad=10.d0
 drpaalg=auto
 dual=off
 dual_df=off
 ecp=auto
 edisp=off
 edisp_embed=off
 embed=off
 epairestfact=off
 epairscale=1.d0
 etemp=300
 epert=none
 eps=
 espcharge=off
 excrad=1.0
 excrad_fin=0.100000000D-02
 fitting=coulomb
 fmm=off
 fmmord=8
 fnonorb=
 freq=off
 gamma=1.4d0
 gauss=spher
 geom=xyz
 gopt=off
 ghost=none
 gtol=7
 grdens=off
 grid=auto
 grid_sm=auto
 gridbatch_cos=2000
 grtol=10
 guido_ct=off
 hamilton=dc
 iface=none
 intalg=auto
 ip_ea=off
 itol=12
 laptol=1.d-3
 lccoporder=lccfirst
 lcorthr=vtight
 lccrest=off
 ldfgrad_tol=8
 lmp2dens=on
 lnoepso=1e-6
 lnoepsv=1e-7
 localcc=2021
 localcorrsymm=off
 locintrf=direct
 mact=
 maxact=off
 maxdim=200
 maxex=0
 maxmicroit=100
 mcscfiguess=hf
 mem=46gb
 mmprog=
 molden=on
 mpitasks=1
 mulmet=3
 mult=1
 nab=off
 nacto=0
 nactv=0
 naf_amp=3.16d-3
 naf_cor=1e-3
 naf_f12=off
 naf_scf=off
 nafalg=albe
 nafdens=off
 naftyp=jpq
 nchol=auto
 ndeps=1e-3
 nstate=1
 nsing=0
 nto=off
 ntrip=0
 num_grad=off
 occ=
 occri=off
 oniom=off
 oniom_eechg=off
 oniom_pcm=off
 oniom_qcorr=off
 optalg=
 optmaxit=50
 optetol=1e-6
 optex=0
 optgtol=1e-4
 optstol=1e-3
 orblocc=off
 orbloce=off
 orbloco=boys
 orblocv=pao
 orblocguess=cholesky
 osveps=-1.d0
 ovirt=off
 ovltol=1e-7
 ovosnorb=80.0
 pao_subsys_tol=1e-3
 pcm=off
 popul=off
 pressure=100000
 pssp=off
 ptfreq=0.0
 ptthreads=2
 qmreg=
 qmmm=off
 qro=off
 qscf=off
 redcost_exc=off
 redcost_tddft=0.985d0
 refdet=none
 rest=0
 rgrid=log3
 rism=off
 rohfcore=standard
 rohftype=semicanonical
 scfalg=locfit1
 scf_conv=auto
 scfdamp=0.0d0
 scfdamp_mode=off
 scfdamp_end=200
 scfdamp_dampstep=0.d0
 scfdamp_dtol=0.0d0
 scfdamp_maxfact=0.0d0
 scfdamp_minfact=0.0d0
 scfdiis=on
 scfdiis_dtol=0.0d0
 scfdiis_end=200
 scfdiis_start=2
 scfdiis_step=1
 scfdiis_watch=off
 scfdiis_wrange=10
 scfdiis_wlimit=5
 scfdiis_delmax=2
 scfdtol=9
 scfext=10
 scfguessdens=
 scfiguess=small
 scfloc=pm
 scflshift=0.20
 scflshift_end=8
 scflshift_dtol=0.0
 scflshift_gaptol=0.20
 scfmaxit=200
 scftype=
 scftol=8
 scspe=1.d0
 scsph=1.d0
 scsps=1.2d0
 scsps_t=1.2d0
 scspt=0.33333333333333
 scspt_t=0.33333333333333
 scspv=1.d0
 spairtol=-1.d0
 sqmprog=
 subminp=top
 symm=0
 talg=lapl
 temp=298.15
 test=off
 theodore=off
 tlmo=0.999
 tpao=0.94
 tprint=off
 uncontract=off
 unit=angs
 usedisk=0
 verbosity=3
 wpairtol=1.d-6
 
 Calculating integrals for small-basis SCF...

 ************************ 2026-02-26 16:03:09 *************************
 Executing integ...

 Allocation of 46.0 Gbytes of memory...
 
 
 Number of atoms:                  4
 Charge:                           0
 Number of electrons:             10
 Number of core electrons:         2
 Spin multiplicity:                1
 
                 Cartesian coordinates [bohr]      Atomic mass [AMU]  Z
   1  N     1.97420664    1.97415541    1.97424640    14.003074       7
   2  H     3.51863349    2.63865391    1.00653002     1.007825       1
   3  H     2.63877653    1.00647336    3.51882825     1.007825       1
   4  H     1.00639751    3.51850532    2.63869260     1.007825       1
 
 This molecule is an asymmetric top.
 
 Rotational constants [cm-1]: 
      9.725611553639      9.725262897102      6.126632394896
 
 Point group: C1  
 Computational point group: C1  
 
 Cartesian coordinates in standard orientation [bohr]
   1  N     0.00001974   -0.00000801   -0.12725315
   2  H     1.29159153    1.25758525    0.58939811
   3  H    -1.73502610    0.48986803    0.58928866
   4  H     0.44316034   -1.74734193    0.58941309
 
 Nuclear repulsion energy [au]:         11.785797783990
 
Warning: for H atoms in the case of dfbasis_scf=auto the AO basis is set as dfbasis_scf instead of def2-qzvp(pd)-ri-jk because the AO basis is larger. Set the dfbasis_scf=def2-qzvp(pd)-ri-jk in MINP if that is desired.
 
 
 Basis set information:
 
 Maximum angular momentum: g
 Maximum number of contracted Gaussians:   10
 Maximum number of primitive Gaussians:    14
 Spherical harmonic GTOs are used.
 
 
 Conventional basis set:
 
   1  N  def2-svp [ 7s 4p 1d | 3s 2p 1d ]
   2  H  def2-svp [ 4s 1p | 2s 1p ]
   3  H  def2-svp [ 4s 1p | 2s 1p ]
   4  H  def2-svp [ 4s 1p | 2s 1p ]
 
 Basis functions:
            1             2             3             4             5             6             7             8             9            10
    0    1N1s          1N2s          1N3s          1N1pz         1N1py         1N1px         1N2pz         1N2py         1N2px         1N1d-2    
    1    1N1d-1        1N1d0         1N1d+1        1N1d+2        2H1s          2H2s          2H1pz         2H1py         2H1px         3H1s      
    2    3H2s          3H1pz         3H1py         3H1px         4H1s          4H2s          4H1pz         4H1py         4H1px     
 
 Maximum number of basis functions per shell:    6
 Total number of basis functions:     29
 
 
 Fitting basis set for the SCF calculation:
 
   1  N  def2-qzvpp-ri-jk [ 14s 10p 6d 2f 1g | 10s 8p 4d 2f 1g ]
   2  H  def2-qzvpp [ 7s 3p 2d 1f | 4s 3p 2d 1f ]
   3  H  def2-qzvpp [ 7s 3p 2d 1f | 4s 3p 2d 1f ]
   4  H  def2-qzvpp [ 7s 3p 2d 1f | 4s 3p 2d 1f ]
 
 Basis functions:
            1             2             3             4             5             6             7             8             9            10
    0    1N1s          1N2s          1N3s          1N4s          1N5s          1N6s          1N7s          1N8s          1N9s          1N10s     
    1    1N1pz         1N1py         1N1px         1N2pz         1N2py         1N2px         1N3pz         1N3py         1N3px         1N4pz     
    2    1N4py         1N4px         1N5pz         1N5py         1N5px         1N6pz         1N6py         1N6px         1N7pz         1N7py     
    3    1N7px         1N8pz         1N8py         1N8px         1N1d-2        1N1d-1        1N1d0         1N1d+1        1N1d+2        1N2d-2    
    4    1N2d-1        1N2d0         1N2d+1        1N2d+2        1N3d-2        1N3d-1        1N3d0         1N3d+1        1N3d+2        1N4d-2    
    5    1N4d-1        1N4d0         1N4d+1        1N4d+2        1N1f-3        1N1f-2        1N1f-1        1N1f0         1N1f+1        1N1f+2    
    6    1N1f+3        1N2f-3        1N2f-2        1N2f-1        1N2f0         1N2f+1        1N2f+2        1N2f+3        1N1g-4        1N1g-3    
    7    1N1g-2        1N1g-1        1N1g0         1N1g+1        1N1g+2        1N1g+3        1N1g+4        2H1s          2H2s          2H3s      
    8    2H4s          2H1pz         2H1py         2H1px         2H2pz         2H2py         2H2px         2H3pz         2H3py         2H3px     
    9    2H1d-2        2H1d-1        2H1d0         2H1d+1        2H1d+2        2H2d-2        2H2d-1        2H2d0         2H2d+1        2H2d+2    
   10    2H1f-3        2H1f-2        2H1f-1        2H1f0         2H1f+1        2H1f+2        2H1f+3        3H1s          3H2s          3H3s      
   11    3H4s          3H1pz         3H1py         3H1px         3H2pz         3H2py         3H2px         3H3pz         3H3py         3H3px     
   12    3H1d-2        3H1d-1        3H1d0         3H1d+1        3H1d+2        3H2d-2        3H2d-1        3H2d0         3H2d+1        3H2d+2    
   13    3H1f-3        3H1f-2        3H1f-1        3H1f0         3H1f+1        3H1f+2        3H1f+3        4H1s          4H2s          4H3s      
   14    4H4s          4H1pz         4H1py         4H1px         4H2pz         4H2py         4H2px         4H3pz         4H3py         4H3px     
   15    4H1d-2        4H1d-1        4H1d0         4H1d+1        4H1d+2        4H2d-2        4H2d-1        4H2d0         4H2d+1        4H2d+2    
   16    4H1f-3        4H1f-2        4H1f-1        4H1f0         4H1f+1        4H1f+2        4H1f+3    
 
 Maximum number of basis functions per shell:   24
 Total number of basis functions:    167
 
 
 Initializing the SAD routines for the initial guess...
 Checking the files required for the initial guess...
 Density files have not been found for the initial guess.
 Generating SCFDENSITIES.N.def2-svp.0
 Generating SCFDENSITIES.H.def2-svp.0
 CPU time [min]:     0.218                   Wall time [min]:     0.151
 
 Character table for point group C1:
 
          E  
    A     1
 
 Number of basis functions per irrep:
    A      29
 
 
 Calculation of overlap integrals...
 CPU time [min]:     0.222                   Wall time [min]:     0.151
 
 Calculation of the square root of the overlap matrix...
 Minimum eigenvalue of the overlap matrix: 0.299700E-01
 CPU time [min]:     0.237                   Wall time [min]:     0.151
 
 Calculation of kinetic energy integrals...
 CPU time [min]:     0.237                   Wall time [min]:     0.151
 Calculation of dipole moment integrals...
 CPU time [min]:     0.238                   Wall time [min]:     0.151
 Calculation of nuclear attraction integrals...
 CPU time [min]:     0.239                   Wall time [min]:     0.151
 
 Calculation of prescreening integrals...
 CPU time [min]:     0.245                   Wall time [min]:     0.151
 
 Calculation of two-center Coulomb integrals...
   4% done.
  17% done.
  29% done.
  41% done.
  52% done.
  67% done.
  81% done.
  92% done.
 100% done.
 CPU time [min]:     0.256                   Wall time [min]:     0.151
 
 Cholesky decomposition of the two-center matrix...
 Reciprocal of the condition number:  0.167239E-04
 CPU time [min]:     0.264                   Wall time [min]:     0.152
 
 
 Running small-basis SCF...

 ************************ 2026-02-26 16:03:18 *************************
 Executing scf...

 @scfsetup: integrals calculated directly
            mrcc/integ direct run
 @scfsetup: calculating on full matrices
            not using symmetry adapted basis
 @scfsetup: diis switched on
 @scfsetup: number of steps to extrapolate from  10
 @scfsetup: tolerance in energy deviation    0.100000E-07
            tolerance in density deviation    0.100000E-08
 @scfsetup: maximum number of iterations: 200
 @scfsetup: restricted closed shell hf calc
 @scfsetup: starting scf from superposition of atomic densities
 @scfsetup: occupation set:
            from initial orbitals
 @scfsetup: Parameter-set for SCF acceleration: normal
 @scfsetup: diis runs from iteration:   2
 @scfsetup: diis runs to iteration: 200
 @scfsetup: diis runs in every iteration
 @scfsetup: diiswatch is disabled                   
 @scfsetup: diis dtol criteria to switch on:      0.0000E+00
           (or the iteration number below is reached)
 @scfsetup: static damping scheme
            iteration step criteria to turn damping off: 3
 @scfsetup: dynamic level shifting
            tolarance in HOMO-LUMO gap:  0.200
            tolarance in density deviation:     0.0000E+00
            iteration step criteria to turn level shifting off: 8
 Allocation of 46.0 Gbytes of memory...
 ======================================================================
 ITERATION STEP   1
 CPU time [min]:     0.013                   Wall time [min]:     0.008
 

 SCF control                  : initial
 Damping factor/level shift   : 0.000/0.200
 DIIS [start/end/frequency]   :   2 /200 /  1

 Constructing Fock-matrix...
 
 Pipek-Mezey localization...
 Step  Convergence
   1   0.878895586811
   2   0.002075596203
   3   0.000010582355
   4   0.000000107508
   5   0.000000000712
 CPU time [min]:     0.040                   Wall time [min]:     0.008
 
 Constructing local fitting domains...
 Maximum number of atoms in fitting domains:    4
 Average number of atoms in fitting domains:    4.0
 
 First step of Coulomb + first step of exchange...
 Exchange contribution is evaluated for MOs 1 to 5.
   1% done.
  24% done.
  44% done.
  69% done.
  81% done.
 100% done.
 Fitting and assembly step of exchange...
 CPU time [min]:     0.097                   Wall time [min]:     0.009
 
 Second step of Coulomb...
   1% done.
  24% done.
  44% done.
  69% done.
  81% done.
 100% done.
 CPU time [min]:     0.107                   Wall time [min]:     0.009
 
 Gradient norm:      2.3664E+00
 RMS of [F,P]:                                         0.07444276031761
 RMS of difference density:                            0.02720928658296
 Gap [au]:  0.68128128
 ALPHA OCC:   5
 BETA  OCC:   5
 
 ***HARTREE-FOCK ENERGY IN STEP   1 IS        -55.8598434686342387 [AU]
 ======================================================================
 ITERATION STEP   2
 CPU time [min]:     0.118                   Wall time [min]:     0.010
 

 SCF control                  : diis
 Damping factor/level shift   : 0.000/0.000
 DIIS [start/end/frequency]   :   2 /200 /  1

 Constructing Fock-matrix...
 
 Pipek-Mezey localization...
 Step  Convergence
   1   0.020418418428
   2   0.019592760911
   3   0.000002420914
   4   0.000000000537
 CPU time [min]:     0.143                   Wall time [min]:     0.010
 
 Constructing local fitting domains...
 Maximum number of atoms in fitting domains:    4
 Average number of atoms in fitting domains:    4.0
 
 First step of Coulomb + first step of exchange...
 Exchange contribution is evaluated for MOs 1 to 5.
   1% done.
  24% done.
  44% done.
  69% done.
  81% done.
 100% done.
 Fitting and assembly step of exchange...
 CPU time [min]:     0.205                   Wall time [min]:     0.011
 
 Second step of Coulomb...
   1% done.
  24% done.
  44% done.
  69% done.
  81% done.
 100% done.
 CPU time [min]:     0.215                   Wall time [min]:     0.011
 
 Gradient norm:      3.2144E-01
 DIIS is running in this iteration step.
 RMS of [F,P]:                                         0.01591305358201
 RMS of difference density:                            0.01259210863730
 Gap [au]:  0.55096003
 ALPHA OCC:   5
 BETA  OCC:   5
 
 ***HARTREE-FOCK ENERGY IN STEP   2 IS        -56.1230170647279820 [AU]
 
 Step comparison  Energy Drift [au]  DIIS error drift  Gradient drift
        1            2.6317E-01         5.8530E-02       2.0449E+00
        2            5.6123E+01         1.0000E-09       2.0449E+00
 ======================================================================
 ITERATION STEP   3
 CPU time [min]:     0.230                   Wall time [min]:     0.011
 

 SCF control                  : diis
 Damping factor/level shift   : 0.000/0.000
 DIIS [start/end/frequency]   :   2 /200 /  1

 Constructing Fock-matrix...
 
 Pipek-Mezey localization...
 Step  Convergence
   1   0.020202063517
   2   0.019600643603
   3   0.000001486710
   4   0.000000000139
 CPU time [min]:     0.256                   Wall time [min]:     0.012
 
 Constructing local fitting domains...
 Local fitting domains are unchanged.
 
 First step of Coulomb + first step of exchange...
 Exchange contribution is evaluated for MOs 1 to 5.
   1% done.
  24% done.
  44% done.
  69% done.
  81% done.
 100% done.
 Fitting and assembly step of exchange...
 CPU time [min]:     0.307                   Wall time [min]:     0.013
 
 Second step of Coulomb...
   1% done.
  24% done.
  44% done.
  69% done.
  81% done.
 100% done.
 CPU time [min]:     0.317                   Wall time [min]:     0.013
 
 Gradient norm:      1.2618E-01
 DIIS is running in this iteration step.
 RMS of [F,P]:                                         0.00757072561700
 RMS of difference density:                            0.00382840372987
 Gap [au]:  0.60146371
 ALPHA OCC:   5
 BETA  OCC:   5
 
 ***HARTREE-FOCK ENERGY IN STEP   3 IS        -56.1422980725252572 [AU]
 
 Step comparison  Energy Drift [au]  DIIS error drift  Gradient drift
        2            1.9281E-02         8.3423E-03       1.9526E-01
 ======================================================================
 ITERATION STEP   4
 CPU time [min]:     0.331                   Wall time [min]:     0.013
 

 SCF control                  : diis
 Damping factor/level shift   : 0.000/0.000
 DIIS [start/end/frequency]   :   2 /200 /  1

 Constructing Fock-matrix...
 
 Pipek-Mezey localization...
 Step  Convergence
   1   0.019983380668
   2   0.019608484381
   3   0.000001417579
   4   0.000000000126
 CPU time [min]:     0.357                   Wall time [min]:     0.013
 
 Constructing local fitting domains...
 Local fitting domains are unchanged.
 
 First step of Coulomb + first step of exchange...
 Exchange contribution is evaluated for MOs 1 to 5.
   1% done.
  24% done.
  44% done.
  69% done.
  81% done.
 100% done.
 Fitting and assembly step of exchange...
 CPU time [min]:     0.407                   Wall time [min]:     0.014
 
 Second step of Coulomb...
   1% done.
  24% done.
  44% done.
  69% done.
  81% done.
 100% done.
 CPU time [min]:     0.417                   Wall time [min]:     0.014
 
 Gradient norm:      2.4156E-02
 DIIS is running in this iteration step.
 RMS of [F,P]:                                         0.00093697741831
 RMS of difference density:                            0.00095507407499
 Gap [au]:  0.59396192
 ALPHA OCC:   5
 BETA  OCC:   5
 
 ***HARTREE-FOCK ENERGY IN STEP   4 IS        -56.1475427510162888 [AU]
 
 Step comparison  Energy Drift [au]  DIIS error drift  Gradient drift
        3            5.2447E-03         6.6337E-03       1.0202E-01
 ======================================================================
 ITERATION STEP   5
 CPU time [min]:     0.431                   Wall time [min]:     0.015
 

 SCF control                  : diis
 Damping factor/level shift   : 0.000/0.000
 DIIS [start/end/frequency]   :   2 /200 /  1

 Constructing Fock-matrix...
 
 Pipek-Mezey localization...
 Step  Convergence
   1   0.030044937795
   2   0.029554861931
   3   0.000002302442
   4   0.000000000973
 CPU time [min]:     0.458                   Wall time [min]:     0.015
 
 Constructing local fitting domains...
 Local fitting domains are unchanged.
 
 First step of Coulomb + first step of exchange...
 Exchange contribution is evaluated for MOs 1 to 5.
   1% done.
  24% done.
  44% done.
  69% done.
  81% done.
 100% done.
 Fitting and assembly step of exchange...
 CPU time [min]:     0.508                   Wall time [min]:     0.016
 
 Second step of Coulomb...
   1% done.
  24% done.
  44% done.
  69% done.
  81% done.
 100% done.
 CPU time [min]:     0.518                   Wall time [min]:     0.016
 
 Gradient norm:      2.0154E-03
 DIIS is running in this iteration step.
 RMS of [F,P]:                                         0.00015510984758
 RMS of difference density:                            0.00013120494954
 Gap [au]:  0.59421495
 ALPHA OCC:   5
 BETA  OCC:   5
 
 ***HARTREE-FOCK ENERGY IN STEP   5 IS        -56.1477030126656942 [AU]
 
 Step comparison  Energy Drift [au]  DIIS error drift  Gradient drift
        4            1.6026E-04         7.8187E-04       2.2141E-02
 ======================================================================
 ITERATION STEP   6
 CPU time [min]:     0.533                   Wall time [min]:     0.016
 

 SCF control                  : diis
 Damping factor/level shift   : 0.000/0.000
 DIIS [start/end/frequency]   :   2 /200 /  1

 Constructing Fock-matrix...
 
 Pipek-Mezey localization...
 Step  Convergence
   1   0.045631195466
   2   0.043706042942
   3   0.000019252508
   4   0.000000076432
   5   0.000000000171
 CPU time [min]:     0.559                   Wall time [min]:     0.017
 
 Constructing local fitting domains...
 Local fitting domains are unchanged.
 
 First step of Coulomb + first step of exchange...
 Exchange contribution is evaluated for MOs 1 to 5.
   1% done.
  24% done.
  44% done.
  69% done.
  81% done.
 100% done.
 Fitting and assembly step of exchange...
 CPU time [min]:     0.609                   Wall time [min]:     0.017
 
 Second step of Coulomb...
   1% done.
  24% done.
  44% done.
  69% done.
  81% done.
 100% done.
 CPU time [min]:     0.619                   Wall time [min]:     0.018
 
 Gradient norm:      3.2202E-04
 DIIS is running in this iteration step.
 RMS of [F,P]:                                         0.00001618926555
 RMS of difference density:                            0.00001213393178
 Gap [au]:  0.59420397
 ALPHA OCC:   5
 BETA  OCC:   5
 
 ***HARTREE-FOCK ENERGY IN STEP   6 IS        -56.1477062778575942 [AU]
 
 Step comparison  Energy Drift [au]  DIIS error drift  Gradient drift
        5            3.2652E-06         1.3892E-04       1.6934E-03
 ======================================================================
 ITERATION STEP   7
 CPU time [min]:     0.633                   Wall time [min]:     0.018
 

 SCF control                  : diis
 Damping factor/level shift   : 0.000/0.000
 DIIS [start/end/frequency]   :   2 /200 /  1

 Constructing Fock-matrix...
 
 Pipek-Mezey localization...
 Step  Convergence
   1   0.045449314891
   2   0.045750498429
   3   0.000067549189
   4   0.000000298397
   5   0.000000000623
   6   0.000000000003
   7   0.000000000000
 CPU time [min]:     0.659                   Wall time [min]:     0.018
 
 Constructing local fitting domains...
 Local fitting domains are unchanged.
 
 First step of Coulomb + first step of exchange...
 Exchange contribution is evaluated for MOs 1 to 5.
   1% done.
  24% done.
  44% done.
  69% done.
  81% done.
 100% done.
 Fitting and assembly step of exchange...
 CPU time [min]:     0.710                   Wall time [min]:     0.019
 
 Second step of Coulomb...
   1% done.
  24% done.
  44% done.
  69% done.
  81% done.
 100% done.
 CPU time [min]:     0.720                   Wall time [min]:     0.019
 
 Gradient norm:      7.7177E-05
 DIIS is running in this iteration step.
 RMS of [F,P]:                                         0.00000262781542
 RMS of difference density:                            0.00000286551457
 Gap [au]:  0.59419393
 ALPHA OCC:   5
 BETA  OCC:   5
 
 ***HARTREE-FOCK ENERGY IN STEP   7 IS        -56.1477063132997358 [AU]
 
 Step comparison  Energy Drift [au]  DIIS error drift  Gradient drift
        6            3.5442E-08         1.3561E-05       2.4484E-04
 ======================================================================
 ITERATION STEP   8
 CPU time [min]:     0.734                   Wall time [min]:     0.019
 

 SCF control                  : diis
 Damping factor/level shift   : 0.000/0.000
 DIIS [start/end/frequency]   :   2 /200 /  1

 Constructing Fock-matrix...
 
 Pipek-Mezey localization...
 Step  Convergence
   1   0.045339070048
   2   0.043973234664
   3   0.000004127547
   4   0.000000001471
   5   0.000000000001
   6   0.000000000000
 CPU time [min]:     0.760                   Wall time [min]:     0.020
 
 Constructing local fitting domains...
 Local fitting domains are unchanged.
 
 First step of Coulomb + first step of exchange...
 Exchange contribution is evaluated for MOs 1 to 5.
   1% done.
  24% done.
  44% done.
  69% done.
  81% done.
 100% done.
 Fitting and assembly step of exchange...
 CPU time [min]:     0.811                   Wall time [min]:     0.021
 
 Second step of Coulomb...
   1% done.
  24% done.
  44% done.
  69% done.
  81% done.
 100% done.
 CPU time [min]:     0.821                   Wall time [min]:     0.021
 
 Gradient norm:      1.0792E-05
 DIIS is running in this iteration step.
 RMS of [F,P]:                                         0.00000054055437
 RMS of difference density:                            0.00000096802676
 Gap [au]:  0.59419003
 ALPHA OCC:   5
 BETA  OCC:   5
 
 ***HARTREE-FOCK ENERGY IN STEP   8 IS        -56.1477063149529769 [AU]
 
 Step comparison  Energy Drift [au]  DIIS error drift  Gradient drift
        7            1.6532E-09         2.0873E-06       6.6385E-05
 ======================================================================
 ITERATION STEP   9
 CPU time [min]:     0.869                   Wall time [min]:     0.021
 

 SCF control                  : diis
 Damping factor/level shift   : 0.000/0.000
 DIIS [start/end/frequency]   :   2 /200 /  1

 Constructing Fock-matrix...
 
 Pipek-Mezey localization...
 Step  Convergence
   1   0.045339533715
   2   0.043878495600
   3   0.000011081181
   4   0.000000003272
   5   0.000000000004
   6   0.000000000000
 CPU time [min]:     0.896                   Wall time [min]:     0.022
 
 Constructing local fitting domains...
 Local fitting domains are unchanged.
 
 First step of Coulomb + first step of exchange...
 Exchange contribution is evaluated for MOs 1 to 5.
   1% done.
  24% done.
  44% done.
  69% done.
  81% done.
 100% done.
 Fitting and assembly step of exchange...
 CPU time [min]:     0.946                   Wall time [min]:     0.023
 
 Second step of Coulomb...
   1% done.
  24% done.
  44% done.
  69% done.
  81% done.
 100% done.
 CPU time [min]:     0.956                   Wall time [min]:     0.023
 
 Gradient norm:      3.1569E-06
 DIIS is running in this iteration step.
 RMS of [F,P]:                                         0.00000009591344
 RMS of difference density:                            0.00000029099195
 Gap [au]:  0.59418987
 ALPHA OCC:   5
 BETA  OCC:   5
 
 ***HARTREE-FOCK ENERGY IN STEP   9 IS        -56.1477063150560269 [AU]
 
 Step comparison  Energy Drift [au]  DIIS error drift  Gradient drift
        8            1.0305E-10         4.4464E-07       7.6352E-06
 ======================================================================
 ITERATION STEP  10
 CPU time [min]:     1.003                   Wall time [min]:     0.024
 

 SCF control                  : diis
 Damping factor/level shift   : 0.000/0.000
 DIIS [start/end/frequency]   :   2 /200 /  1

 Constructing Fock-matrix...
 
 Pipek-Mezey localization...
 Step  Convergence
   1   0.045541525879
   2   0.043941381028
   3   0.000011424364
   4   0.000000003283
   5   0.000000000005
   6   0.000000000000
 CPU time [min]:     1.030                   Wall time [min]:     0.024
 
 Constructing local fitting domains...
 Local fitting domains are unchanged.
 
 First step of Coulomb + first step of exchange...
 Exchange contribution is evaluated for MOs 1 to 5.
   1% done.
  24% done.
  44% done.
  69% done.
  81% done.
 100% done.
 Fitting and assembly step of exchange...
 CPU time [min]:     1.080                   Wall time [min]:     0.025
 
 Second step of Coulomb...
   1% done.
  24% done.
  44% done.
  69% done.
  81% done.
 100% done.
 CPU time [min]:     1.090                   Wall time [min]:     0.025
 
 Gradient norm:      6.3566E-07
 DIIS is running in this iteration step.
 RMS of [F,P]:                                         0.00000002162531
 RMS of difference density:                            0.00000007192092
 Gap [au]:  0.59418990
 ALPHA OCC:   5
 BETA  OCC:   5
 
 ***HARTREE-FOCK ENERGY IN STEP  10 IS        -56.1477063150609581 [AU]
 
 Step comparison  Energy Drift [au]  DIIS error drift  Gradient drift
        9            4.9312E-12         7.4288E-08       2.5213E-06
 ======================================================================
 ITERATION STEP  11
 CPU time [min]:     1.251                   Wall time [min]:     0.028
 

 SCF control                  : diis
 Damping factor/level shift   : 0.000/0.000
 DIIS [start/end/frequency]   :   2 /200 /  1

 Constructing Fock-matrix...
 
 Pipek-Mezey localization...
 Step  Convergence
   1   0.045451367552
   2   0.043748171670
   3   0.000004595325
   4   0.000000001601
   5   0.000000000003
   6   0.000000000000
 CPU time [min]:     1.277                   Wall time [min]:     0.028
 
 Constructing local fitting domains...
 Local fitting domains are unchanged.
 
 First step of Coulomb + first step of exchange...
 Exchange contribution is evaluated for MOs 1 to 5.
   1% done.
  24% done.
  44% done.
  69% done.
  81% done.
 100% done.
 Fitting and assembly step of exchange...
 CPU time [min]:     1.327                   Wall time [min]:     0.029
 
 Second step of Coulomb...
   1% done.
  24% done.
  44% done.
  69% done.
  81% done.
 100% done.
 CPU time [min]:     1.337                   Wall time [min]:     0.029
 
 Gradient norm:      4.4728E-08
 DIIS is running in this iteration step.
 RMS of [F,P]:                                         0.00000000196020
 RMS of difference density:                            0.00000000390138
 Gap [au]:  0.59418991
 ALPHA OCC:   5
 BETA  OCC:   5
 
 ***HARTREE-FOCK ENERGY IN STEP  11 IS        -56.1477063150611002 [AU]
 
 Step comparison  Energy Drift [au]  DIIS error drift  Gradient drift
       10            1.4211E-13         1.9665E-08       5.9093E-07
 ======================================================================
 ITERATION STEP  12
 CPU time [min]:     1.352                   Wall time [min]:     0.029
 

 SCF control                  : diis
 Damping factor/level shift   : 0.000/0.000
 DIIS [start/end/frequency]   :   2 /200 /  1

 Constructing Fock-matrix...
 
 Pipek-Mezey localization...
 Step  Convergence
   1   0.045451405041
   2   0.043769181377
   3   0.000003261438
   4   0.000000001430
   5   0.000000000002
   6   0.000000000000
 CPU time [min]:     1.378                   Wall time [min]:     0.030
 
 Constructing local fitting domains...
 Local fitting domains are unchanged.
 
 First step of Coulomb + first step of exchange...
 Exchange contribution is evaluated for MOs 1 to 5.
   1% done.
  24% done.
  44% done.
  69% done.
  81% done.
 100% done.
 Fitting and assembly step of exchange...
 CPU time [min]:     1.428                   Wall time [min]:     0.030
 
 Second step of Coulomb...
   1% done.
  24% done.
  44% done.
  69% done.
  81% done.
 100% done.
 CPU time [min]:     1.438                   Wall time [min]:     0.030
 
 Gradient norm:      3.1969E-09
 DIIS is running in this iteration step.
 RMS of [F,P]:                                         0.00000000016317
 RMS of difference density:                            0.00000000023249
 Gap [au]:  0.59418991
 ALPHA OCC:   5
 BETA  OCC:   5
 
 ***HARTREE-FOCK ENERGY IN STEP  12 IS        -56.1477063150611002 [AU]
 
 Step comparison  Energy Drift [au]  DIIS error drift  Gradient drift
       11            0.0000E+00         1.7970E-09       4.1531E-08
 Warning! The energy goes uphill (with respect to previous step).
 
 The SCF iteration has converged.
 An extra iteration will be performed to calculate accurate SCF energy.
 
 ======================================================================
 ITERATION STEP  13
 CPU time [min]:     1.453                   Wall time [min]:     0.031
 

 SCF control                  : diis
 Damping factor/level shift   : 0.000/0.000
 DIIS [start/end/frequency]   :   2 /200 /  1

 Constructing Fock-matrix...
 
 Pipek-Mezey localization...
 Step  Convergence
   1   0.045422216809
   2   0.043863756597
   3   0.000009299630
   4   0.000000001755
   5   0.000000000000
 CPU time [min]:     1.479                   Wall time [min]:     0.031
 
 Constructing local fitting domains...
 Local fitting domains are unchanged.
 
 First step of Coulomb + first step of exchange...
 Exchange contribution is evaluated for MOs 1 to 5.
   1% done.
  24% done.
  44% done.
  69% done.
  81% done.
 100% done.
 Fitting and assembly step of exchange...
 CPU time [min]:     1.529                   Wall time [min]:     0.032
 
 Second step of Coulomb...
   1% done.
  24% done.
  44% done.
  69% done.
  81% done.
 100% done.
 CPU time [min]:     1.539                   Wall time [min]:     0.032
 
 Gradient norm:      5.1116E-10
 RMS of [F,P]:                                         0.00000000002716
 RMS of difference density:                            0.00000000003347
 Gap [au]:  0.59418991
 ALPHA OCC:   5
 BETA  OCC:   5
 
 ***HARTREE-FOCK ENERGY IN STEP  13 IS        -56.1477063150611357 [AU]
 
 Step comparison  Energy Drift [au]  DIIS error drift  Gradient drift
       12            3.5527E-14         1.3601E-10       2.6857E-09
 ======================================================================
 
 SUCCESS...
 THE SCF ITERATION HAS CONVERGED!
 
                   A   
 FINAL ALPHA OCC:   5
 FINAL BETA  OCC:   5
 
 ***FINAL HARTREE-FOCK ENERGY:        -56.1477063150611357 [AU]
 
 Orbital energies [au]:
      Irrep         Alpha          Beta
    1   A        -15.539163     -15.539163
    2   A         -1.111214      -1.111214
    3   A         -0.615134      -0.615134
    4   A         -0.615103      -0.615103
    5   A         -0.418560      -0.418560
 
    6   A          0.175630       0.175630
    7   A          0.268893       0.268893
    8   A          0.268900       0.268900
    9   A          0.733854       0.733854
   10   A          0.733893       0.733893
   11   A          0.882385       0.882385
   12   A          0.990000       0.990000
   13   A          1.093598       1.093598
   14   A          1.093606       1.093606
   15   A          1.140263       1.140263
   16   A          1.459621       1.459621
   17   A          1.459637       1.459637
   18   A          1.866467       1.866467
   19   A          1.964301       1.964301
   20   A          2.074287       2.074287
   21   A          2.074298       2.074298
   22   A          2.418489       2.418489
   23   A          2.418604       2.418604
   24   A          2.745580       2.745580
   25   A          3.155563       3.155563
   26   A          3.155580       3.155580
   27   A          3.258821       3.258821
   28   A          3.692147       3.692147
   29   A          3.692186       3.692186
 
 RETURNING FROM SCF ALGORITHM
 ======================================================================

 ************************ 2026-02-26 16:03:20 *************************
 Executing integ...

 Allocation of 46.0 Gbytes of memory...
 
 
 Number of atoms:                  4
 Charge:                           0
 Number of electrons:             10
 Number of core electrons:         2
 Spin multiplicity:                1
 
                 Cartesian coordinates [bohr]      Atomic mass [AMU]  Z
   1  N     1.97420664    1.97415541    1.97424640    14.003074       7
   2  H     3.51863349    2.63865391    1.00653002     1.007825       1
   3  H     2.63877653    1.00647336    3.51882825     1.007825       1
   4  H     1.00639751    3.51850532    2.63869260     1.007825       1
 
 This molecule is an asymmetric top.
 
 Rotational constants [cm-1]: 
      9.725611553639      9.725262897102      6.126632394896
 
 Point group: C1  
 Computational point group: C1  
 
 Cartesian coordinates in standard orientation [bohr]
   1  N     0.00001974   -0.00000801   -0.12725315
   2  H     1.29159153    1.25758525    0.58939811
   3  H    -1.73502610    0.48986803    0.58928866
   4  H     0.44316034   -1.74734193    0.58941309
 
 Nuclear repulsion energy [au]:         11.785797783990
 
 
 Basis set information:
 
 Maximum angular momentum: h
 Maximum number of contracted Gaussians:   11
 Maximum number of primitive Gaussians:    14
 Spherical harmonic GTOs are used.
 
 
 Conventional basis set:
 
   1  N  aug-cc-pvqz [ 13s 7p 4d 3f 2g | 6s 5p 4d 3f 2g ]
   2  H  aug-cc-pvqz [ 7s 4p 3d 2f | 5s 4p 3d 2f ]
   3  H  aug-cc-pvqz [ 7s 4p 3d 2f | 5s 4p 3d 2f ]
   4  H  aug-cc-pvqz [ 7s 4p 3d 2f | 5s 4p 3d 2f ]
 
 Basis functions:
            1             2             3             4             5             6             7             8             9            10
    0    1N1s          1N2s          1N3s          1N4s          1N5s          1N6s          1N1pz         1N1py         1N1px         1N2pz     
    1    1N2py         1N2px         1N3pz         1N3py         1N3px         1N4pz         1N4py         1N4px         1N5pz         1N5py     
    2    1N5px         1N1d-2        1N1d-1        1N1d0         1N1d+1        1N1d+2        1N2d-2        1N2d-1        1N2d0         1N2d+1    
    3    1N2d+2        1N3d-2        1N3d-1        1N3d0         1N3d+1        1N3d+2        1N4d-2        1N4d-1        1N4d0         1N4d+1    
    4    1N4d+2        1N1f-3        1N1f-2        1N1f-1        1N1f0         1N1f+1        1N1f+2        1N1f+3        1N2f-3        1N2f-2    
    5    1N2f-1        1N2f0         1N2f+1        1N2f+2        1N2f+3        1N3f-3        1N3f-2        1N3f-1        1N3f0         1N3f+1    
    6    1N3f+2        1N3f+3        1N1g-4        1N1g-3        1N1g-2        1N1g-1        1N1g0         1N1g+1        1N1g+2        1N1g+3    
    7    1N1g+4        1N2g-4        1N2g-3        1N2g-2        1N2g-1        1N2g0         1N2g+1        1N2g+2        1N2g+3        1N2g+4    
    8    2H1s          2H2s          2H3s          2H4s          2H5s          2H1pz         2H1py         2H1px         2H2pz         2H2py     
    9    2H2px         2H3pz         2H3py         2H3px         2H4pz         2H4py         2H4px         2H1d-2        2H1d-1        2H1d0     
   10    2H1d+1        2H1d+2        2H2d-2        2H2d-1        2H2d0         2H2d+1        2H2d+2        2H3d-2        2H3d-1        2H3d0     
   11    2H3d+1        2H3d+2        2H1f-3        2H1f-2        2H1f-1        2H1f0         2H1f+1        2H1f+2        2H1f+3        2H2f-3    
   12    2H2f-2        2H2f-1        2H2f0         2H2f+1        2H2f+2        2H2f+3        3H1s          3H2s          3H3s          3H4s      
   13    3H5s          3H1pz         3H1py         3H1px         3H2pz         3H2py         3H2px         3H3pz         3H3py         3H3px     
   14    3H4pz         3H4py         3H4px         3H1d-2        3H1d-1        3H1d0         3H1d+1        3H1d+2        3H2d-2        3H2d-1    
   15    3H2d0         3H2d+1        3H2d+2        3H3d-2        3H3d-1        3H3d0         3H3d+1        3H3d+2        3H1f-3        3H1f-2    
   16    3H1f-1        3H1f0         3H1f+1        3H1f+2        3H1f+3        3H2f-3        3H2f-2        3H2f-1        3H2f0         3H2f+1    
   17    3H2f+2        3H2f+3        4H1s          4H2s          4H3s          4H4s          4H5s          4H1pz         4H1py         4H1px     
   18    4H2pz         4H2py         4H2px         4H3pz         4H3py         4H3px         4H4pz         4H4py         4H4px         4H1d-2    
   19    4H1d-1        4H1d0         4H1d+1        4H1d+2        4H2d-2        4H2d-1        4H2d0         4H2d+1        4H2d+2        4H3d-2    
   20    4H3d-1        4H3d0         4H3d+1        4H3d+2        4H1f-3        4H1f-2        4H1f-1        4H1f0         4H1f+1        4H1f+2    
   21    4H1f+3        4H2f-3        4H2f-2        4H2f-1        4H2f0         4H2f+1        4H2f+2        4H2f+3    
 
 Maximum number of basis functions per shell:   21
 Total number of basis functions:    218
 
 
 Fitting basis set for the SCF calculation:
 
   1  N  aug-cc-pvqz-ri-jk [ 11s 8p 6d 4f 3g 2h | 11s 8p 6d 4f 3g 2h ]
   2  H  aug-cc-pvqz-ri-jk [ 5s 4p 4d 3f 2g | 5s 4p 4d 3f 2g ]
   3  H  aug-cc-pvqz-ri-jk [ 5s 4p 4d 3f 2g | 5s 4p 4d 3f 2g ]
   4  H  aug-cc-pvqz-ri-jk [ 5s 4p 4d 3f 2g | 5s 4p 4d 3f 2g ]
 
 Basis functions:
            1             2             3             4             5             6             7             8             9            10
    0    1N1s          1N2s          1N3s          1N4s          1N5s          1N6s          1N7s          1N8s          1N9s          1N10s     
    1    1N11s         1N1pz         1N1py         1N1px         1N2pz         1N2py         1N2px         1N3pz         1N3py         1N3px     
    2    1N4pz         1N4py         1N4px         1N5pz         1N5py         1N5px         1N6pz         1N6py         1N6px         1N7pz     
    3    1N7py         1N7px         1N8pz         1N8py         1N8px         1N1d-2        1N1d-1        1N1d0         1N1d+1        1N1d+2    
    4    1N2d-2        1N2d-1        1N2d0         1N2d+1        1N2d+2        1N3d-2        1N3d-1        1N3d0         1N3d+1        1N3d+2    
    5    1N4d-2        1N4d-1        1N4d0         1N4d+1        1N4d+2        1N5d-2        1N5d-1        1N5d0         1N5d+1        1N5d+2    
    6    1N6d-2        1N6d-1        1N6d0         1N6d+1        1N6d+2        1N1f-3        1N1f-2        1N1f-1        1N1f0         1N1f+1    
    7    1N1f+2        1N1f+3        1N2f-3        1N2f-2        1N2f-1        1N2f0         1N2f+1        1N2f+2        1N2f+3        1N3f-3    
    8    1N3f-2        1N3f-1        1N3f0         1N3f+1        1N3f+2        1N3f+3        1N4f-3        1N4f-2        1N4f-1        1N4f0     
    9    1N4f+1        1N4f+2        1N4f+3        1N1g-4        1N1g-3        1N1g-2        1N1g-1        1N1g0         1N1g+1        1N1g+2    
   10    1N1g+3        1N1g+4        1N2g-4        1N2g-3        1N2g-2        1N2g-1        1N2g0         1N2g+1        1N2g+2        1N2g+3    
   11    1N2g+4        1N3g-4        1N3g-3        1N3g-2        1N3g-1        1N3g0         1N3g+1        1N3g+2        1N3g+3        1N3g+4    
   12    1N1h-5        1N1h-4        1N1h-3        1N1h-2        1N1h-1        1N1h0         1N1h+1        1N1h+2        1N1h+3        1N1h+4    
   13    1N1h+5        1N2h-5        1N2h-4        1N2h-3        1N2h-2        1N2h-1        1N2h0         1N2h+1        1N2h+2        1N2h+3    
   14    1N2h+4        1N2h+5        2H1s          2H2s          2H3s          2H4s          2H5s          2H1pz         2H1py         2H1px     
   15    2H2pz         2H2py         2H2px         2H3pz         2H3py         2H3px         2H4pz         2H4py         2H4px         2H1d-2    
   16    2H1d-1        2H1d0         2H1d+1        2H1d+2        2H2d-2        2H2d-1        2H2d0         2H2d+1        2H2d+2        2H3d-2    
   17    2H3d-1        2H3d0         2H3d+1        2H3d+2        2H4d-2        2H4d-1        2H4d0         2H4d+1        2H4d+2        2H1f-3    
   18    2H1f-2        2H1f-1        2H1f0         2H1f+1        2H1f+2        2H1f+3        2H2f-3        2H2f-2        2H2f-1        2H2f0     
   19    2H2f+1        2H2f+2        2H2f+3        2H3f-3        2H3f-2        2H3f-1        2H3f0         2H3f+1        2H3f+2        2H3f+3    
   20    2H1g-4        2H1g-3        2H1g-2        2H1g-1        2H1g0         2H1g+1        2H1g+2        2H1g+3        2H1g+4        2H2g-4    
   21    2H2g-3        2H2g-2        2H2g-1        2H2g0         2H2g+1        2H2g+2        2H2g+3        2H2g+4        3H1s          3H2s      
   22    3H3s          3H4s          3H5s          3H1pz         3H1py         3H1px         3H2pz         3H2py         3H2px         3H3pz     
   23    3H3py         3H3px         3H4pz         3H4py         3H4px         3H1d-2        3H1d-1        3H1d0         3H1d+1        3H1d+2    
   24    3H2d-2        3H2d-1        3H2d0         3H2d+1        3H2d+2        3H3d-2        3H3d-1        3H3d0         3H3d+1        3H3d+2    
   25    3H4d-2        3H4d-1        3H4d0         3H4d+1        3H4d+2        3H1f-3        3H1f-2        3H1f-1        3H1f0         3H1f+1    
   26    3H1f+2        3H1f+3        3H2f-3        3H2f-2        3H2f-1        3H2f0         3H2f+1        3H2f+2        3H2f+3        3H3f-3    
   27    3H3f-2        3H3f-1        3H3f0         3H3f+1        3H3f+2        3H3f+3        3H1g-4        3H1g-3        3H1g-2        3H1g-1    
   28    3H1g0         3H1g+1        3H1g+2        3H1g+3        3H1g+4        3H2g-4        3H2g-3        3H2g-2        3H2g-1        3H2g0     
   29    3H2g+1        3H2g+2        3H2g+3        3H2g+4        4H1s          4H2s          4H3s          4H4s          4H5s          4H1pz     
   30    4H1py         4H1px         4H2pz         4H2py         4H2px         4H3pz         4H3py         4H3px         4H4pz         4H4py     
   31    4H4px         4H1d-2        4H1d-1        4H1d0         4H1d+1        4H1d+2        4H2d-2        4H2d-1        4H2d0         4H2d+1    
   32    4H2d+2        4H3d-2        4H3d-1        4H3d0         4H3d+1        4H3d+2        4H4d-2        4H4d-1        4H4d0         4H4d+1    
   33    4H4d+2        4H1f-3        4H1f-2        4H1f-1        4H1f0         4H1f+1        4H1f+2        4H1f+3        4H2f-3        4H2f-2    
   34    4H2f-1        4H2f0         4H2f+1        4H2f+2        4H2f+3        4H3f-3        4H3f-2        4H3f-1        4H3f0         4H3f+1    
   35    4H3f+2        4H3f+3        4H1g-4        4H1g-3        4H1g-2        4H1g-1        4H1g0         4H1g+1        4H1g+2        4H1g+3    
   36    4H1g+4        4H2g-4        4H2g-3        4H2g-2        4H2g-1        4H2g0         4H2g+1        4H2g+2        4H2g+3        4H2g+4    
 
 Maximum number of basis functions per shell:   30
 Total number of basis functions:    370
 
 
 Fitting basis set for the correlation calculation:
 
   1  N  aug-cc-pvqz-ri [ 9s 8p 7d 6f 4g 2h | 9s 8p 7d 6f 4g 2h ]
   2  H  aug-cc-pvqz-ri [ 6s 5p 4d 3f 2g | 6s 5p 4d 3f 2g ]
   3  H  aug-cc-pvqz-ri [ 6s 5p 4d 3f 2g | 6s 5p 4d 3f 2g ]
   4  H  aug-cc-pvqz-ri [ 6s 5p 4d 3f 2g | 6s 5p 4d 3f 2g ]
 
 Basis functions:
            1             2             3             4             5             6             7             8             9            10
    0    1N1s          1N2s          1N3s          1N4s          1N5s          1N6s          1N7s          1N8s          1N9s          1N1pz     
    1    1N1py         1N1px         1N2pz         1N2py         1N2px         1N3pz         1N3py         1N3px         1N4pz         1N4py     
    2    1N4px         1N5pz         1N5py         1N5px         1N6pz         1N6py         1N6px         1N7pz         1N7py         1N7px     
    3    1N8pz         1N8py         1N8px         1N1d-2        1N1d-1        1N1d0         1N1d+1        1N1d+2        1N2d-2        1N2d-1    
    4    1N2d0         1N2d+1        1N2d+2        1N3d-2        1N3d-1        1N3d0         1N3d+1        1N3d+2        1N4d-2        1N4d-1    
    5    1N4d0         1N4d+1        1N4d+2        1N5d-2        1N5d-1        1N5d0         1N5d+1        1N5d+2        1N6d-2        1N6d-1    
    6    1N6d0         1N6d+1        1N6d+2        1N7d-2        1N7d-1        1N7d0         1N7d+1        1N7d+2        1N1f-3        1N1f-2    
    7    1N1f-1        1N1f0         1N1f+1        1N1f+2        1N1f+3        1N2f-3        1N2f-2        1N2f-1        1N2f0         1N2f+1    
    8    1N2f+2        1N2f+3        1N3f-3        1N3f-2        1N3f-1        1N3f0         1N3f+1        1N3f+2        1N3f+3        1N4f-3    
    9    1N4f-2        1N4f-1        1N4f0         1N4f+1        1N4f+2        1N4f+3        1N5f-3        1N5f-2        1N5f-1        1N5f0     
   10    1N5f+1        1N5f+2        1N5f+3        1N6f-3        1N6f-2        1N6f-1        1N6f0         1N6f+1        1N6f+2        1N6f+3    
   11    1N1g-4        1N1g-3        1N1g-2        1N1g-1        1N1g0         1N1g+1        1N1g+2        1N1g+3        1N1g+4        1N2g-4    
   12    1N2g-3        1N2g-2        1N2g-1        1N2g0         1N2g+1        1N2g+2        1N2g+3        1N2g+4        1N3g-4        1N3g-3    
   13    1N3g-2        1N3g-1        1N3g0         1N3g+1        1N3g+2        1N3g+3        1N3g+4        1N4g-4        1N4g-3        1N4g-2    
   14    1N4g-1        1N4g0         1N4g+1        1N4g+2        1N4g+3        1N4g+4        1N1h-5        1N1h-4        1N1h-3        1N1h-2    
   15    1N1h-1        1N1h0         1N1h+1        1N1h+2        1N1h+3        1N1h+4        1N1h+5        1N2h-5        1N2h-4        1N2h-3    
   16    1N2h-2        1N2h-1        1N2h0         1N2h+1        1N2h+2        1N2h+3        1N2h+4        1N2h+5        2H1s          2H2s      
   17    2H3s          2H4s          2H5s          2H6s          2H1pz         2H1py         2H1px         2H2pz         2H2py         2H2px     
   18    2H3pz         2H3py         2H3px         2H4pz         2H4py         2H4px         2H5pz         2H5py         2H5px         2H1d-2    
   19    2H1d-1        2H1d0         2H1d+1        2H1d+2        2H2d-2        2H2d-1        2H2d0         2H2d+1        2H2d+2        2H3d-2    
   20    2H3d-1        2H3d0         2H3d+1        2H3d+2        2H4d-2        2H4d-1        2H4d0         2H4d+1        2H4d+2        2H1f-3    
   21    2H1f-2        2H1f-1        2H1f0         2H1f+1        2H1f+2        2H1f+3        2H2f-3        2H2f-2        2H2f-1        2H2f0     
   22    2H2f+1        2H2f+2        2H2f+3        2H3f-3        2H3f-2        2H3f-1        2H3f0         2H3f+1        2H3f+2        2H3f+3    
   23    2H1g-4        2H1g-3        2H1g-2        2H1g-1        2H1g0         2H1g+1        2H1g+2        2H1g+3        2H1g+4        2H2g-4    
   24    2H2g-3        2H2g-2        2H2g-1        2H2g0         2H2g+1        2H2g+2        2H2g+3        2H2g+4        3H1s          3H2s      
   25    3H3s          3H4s          3H5s          3H6s          3H1pz         3H1py         3H1px         3H2pz         3H2py         3H2px     
   26    3H3pz         3H3py         3H3px         3H4pz         3H4py         3H4px         3H5pz         3H5py         3H5px         3H1d-2    
   27    3H1d-1        3H1d0         3H1d+1        3H1d+2        3H2d-2        3H2d-1        3H2d0         3H2d+1        3H2d+2        3H3d-2    
   28    3H3d-1        3H3d0         3H3d+1        3H3d+2        3H4d-2        3H4d-1        3H4d0         3H4d+1        3H4d+2        3H1f-3    
   29    3H1f-2        3H1f-1        3H1f0         3H1f+1        3H1f+2        3H1f+3        3H2f-3        3H2f-2        3H2f-1        3H2f0     
   30    3H2f+1        3H2f+2        3H2f+3        3H3f-3        3H3f-2        3H3f-1        3H3f0         3H3f+1        3H3f+2        3H3f+3    
   31    3H1g-4        3H1g-3        3H1g-2        3H1g-1        3H1g0         3H1g+1        3H1g+2        3H1g+3        3H1g+4        3H2g-4    
   32    3H2g-3        3H2g-2        3H2g-1        3H2g0         3H2g+1        3H2g+2        3H2g+3        3H2g+4        4H1s          4H2s      
   33    4H3s          4H4s          4H5s          4H6s          4H1pz         4H1py         4H1px         4H2pz         4H2py         4H2px     
   34    4H3pz         4H3py         4H3px         4H4pz         4H4py         4H4px         4H5pz         4H5py         4H5px         4H1d-2    
   35    4H1d-1        4H1d0         4H1d+1        4H1d+2        4H2d-2        4H2d-1        4H2d0         4H2d+1        4H2d+2        4H3d-2    
   36    4H3d-1        4H3d0         4H3d+1        4H3d+2        4H4d-2        4H4d-1        4H4d0         4H4d+1        4H4d+2        4H1f-3    
   37    4H1f-2        4H1f-1        4H1f0         4H1f+1        4H1f+2        4H1f+3        4H2f-3        4H2f-2        4H2f-1        4H2f0     
   38    4H2f+1        4H2f+2        4H2f+3        4H3f-3        4H3f-2        4H3f-1        4H3f0         4H3f+1        4H3f+2        4H3f+3    
   39    4H1g-4        4H1g-3        4H1g-2        4H1g-1        4H1g0         4H1g+1        4H1g+2        4H1g+3        4H1g+4        4H2g-4    
   40    4H2g-3        4H2g-2        4H2g-1        4H2g0         4H2g+1        4H2g+2        4H2g+3        4H2g+4    
 
 Maximum number of basis functions per shell:   42
 Total number of basis functions:    408
 
 
 Old basis set for SCF restart
 
   1  N  def2-svp [ 7s 4p 1d | 3s 2p 1d ]
   2  H  def2-svp [ 4s 1p | 2s 1p ]
   3  H  def2-svp [ 4s 1p | 2s 1p ]
   4  H  def2-svp [ 4s 1p | 2s 1p ]
 
 Basis functions:
            1             2             3             4             5             6             7             8             9            10
    0    1N1s          1N2s          1N3s          1N1pz         1N1py         1N1px         1N2pz         1N2py         1N2px         1N1d-2    
    1    1N1d-1        1N1d0         1N1d+1        1N1d+2        2H1s          2H2s          2H1pz         2H1py         2H1px         3H1s      
    2    3H2s          3H1pz         3H1py         3H1px         4H1s          4H2s          4H1pz         4H1py         4H1px     
 
 Maximum number of basis functions per shell:   42
 Total number of basis functions:     29
 
 
 Character table for point group C1:
 
          E  
    A     1
 
 Number of basis functions per irrep:
    A     218
 
 
 Calculation of overlap integrals...
 CPU time [min]:     0.127                   Wall time [min]:     0.004
 
 Calculation of the square root of the overlap matrix...
 Minimum eigenvalue of the overlap matrix: 0.493613E-04
 CPU time [min]:     0.150                   Wall time [min]:     0.005
 
 Calculation of kinetic energy integrals...
 CPU time [min]:     0.151                   Wall time [min]:     0.005
 Calculation of dipole moment integrals...
 CPU time [min]:     0.153                   Wall time [min]:     0.005
 Calculation of nuclear attraction integrals...
 CPU time [min]:     0.155                   Wall time [min]:     0.005
 Calculation of overlap integrals...
 CPU time [min]:     0.157                   Wall time [min]:     0.005
 
 Calculation of prescreening integrals...
 CPU time [min]:     0.394                   Wall time [min]:     0.009
 
 Calculation of two-center Coulomb integrals...
   1% done.
  15% done.
  29% done.
  40% done.
  56% done.
  71% done.
  91% done.
 100% done.
 CPU time [min]:     0.406                   Wall time [min]:     0.009
 
 Cholesky decomposition of the two-center matrix...
 Reciprocal of the condition number:  0.161211E-04
 CPU time [min]:     0.414                   Wall time [min]:     0.009
 

 ************************ 2026-02-26 16:03:21 *************************
 Executing scf...

 @scfsetup: integrals calculated directly
            mrcc/integ direct run
 @scfsetup: calculating on full matrices
            not using symmetry adapted basis
 @scfsetup: diis switched on
 @scfsetup: number of steps to extrapolate from  10
 @scfsetup: tolerance in energy deviation    0.100000E-07
            tolerance in density deviation    0.100000E-08
 @scfsetup: maximum number of iterations: 200
 @scfsetup: restricted closed shell hf calc
 @scfsetup: restarting scf from SCFDENSITIES file
 @scfsetup: occupation set:
            from initial orbitals
 @scfsetup: Parameter-set for SCF acceleration: normal
 @scfsetup: diis runs from iteration:   2
 @scfsetup: diis runs to iteration: 200
 @scfsetup: diis runs in every iteration
 @scfsetup: diiswatch is disabled                   
 @scfsetup: diis dtol criteria to switch on:      0.0000E+00
           (or the iteration number below is reached)
 @scfsetup: static damping scheme
            iteration step criteria to turn damping off: 3
 @scfsetup: dynamic level shifting
            tolarance in HOMO-LUMO gap:  0.200
            tolarance in density deviation:     0.0000E+00
            iteration step criteria to turn level shifting off: 8
 Allocation of 46.0 Gbytes of memory...
 ======================================================================
 ITERATION STEP   1
 CPU time [min]:     0.034                   Wall time [min]:     0.009
 

 SCF control                  : initial
 Damping factor/level shift   : 0.000/0.200
 DIIS [start/end/frequency]   :   2 /200 /  1

 Constructing Fock-matrix...
 Inverse square root: The matrix is not positive definite!
 
 Pipek-Mezey localization...
 Step  Convergence
   1   0.935529096203
   2   0.002414214751
   3   0.000009814380
   4   0.000000286910
   5   0.000000007887
 CPU time [min]:     0.062                   Wall time [min]:     0.009
 
 Constructing local fitting domains...
 Maximum number of atoms in fitting domains:    4
 Average number of atoms in fitting domains:    4.0
 
 First step of Coulomb + first step of exchange...
 Exchange contribution is evaluated for MOs 1 to 5.
   1% done.
  14% done.
  27% done.
  43% done.
  62% done.
  75% done.
  88% done.
 100% done.
 Fitting and assembly step of exchange...
 CPU time [min]:     0.196                   Wall time [min]:     0.012
 
 Second step of Coulomb...
   1% done.
  14% done.
  27% done.
  43% done.
  62% done.
  75% done.
  88% done.
 100% done.
 CPU time [min]:     0.239                   Wall time [min]:     0.012
 
 Gradient norm:      1.4642E+00
 RMS of [F,P]:                                         0.00996892911474
 RMS of difference density:                            0.02051473399441
 Gap [au]:  0.45172478
 ALPHA OCC:   5
 BETA  OCC:   5
 
 ***HARTREE-FOCK ENERGY IN STEP   1 IS        -56.1750302089148477 [AU]
 ======================================================================
 ITERATION STEP   2
 CPU time [min]:     0.265                   Wall time [min]:     0.013
 

 SCF control                  : diis
 Damping factor/level shift   : 0.000/0.000
 DIIS [start/end/frequency]   :   2 /200 /  1

 Constructing Fock-matrix...
 
 Pipek-Mezey localization...
 Step  Convergence
   1   0.019959005124
   2   0.019635669409
   3   0.000005217053
   4   0.000000052981
   5   0.000000000634
 CPU time [min]:     0.289                   Wall time [min]:     0.013
 
 Constructing local fitting domains...
 Maximum number of atoms in fitting domains:    4
 Average number of atoms in fitting domains:    4.0
 
 First step of Coulomb + first step of exchange...
 Exchange contribution is evaluated for MOs 1 to 5.
   1% done.
  14% done.
  27% done.
  43% done.
  62% done.
  75% done.
  88% done.
 100% done.
 Fitting and assembly step of exchange...
 CPU time [min]:     0.410                   Wall time [min]:     0.015
 
 Second step of Coulomb...
   1% done.
  14% done.
  27% done.
  43% done.
  62% done.
  75% done.
  88% done.
 100% done.
 CPU time [min]:     0.453                   Wall time [min]:     0.016
 
 Gradient norm:      5.2914E-02
 DIIS is running in this iteration step.
 RMS of [F,P]:                                         0.00034995926283
 RMS of difference density:                            0.00127251062361
 Gap [au]:  0.45421592
 ALPHA OCC:   5
 BETA  OCC:   5
 
 ***HARTREE-FOCK ENERGY IN STEP   2 IS        -56.2214072362194059 [AU]
 
 Step comparison  Energy Drift [au]  DIIS error drift  Gradient drift
        1            4.6377E-02         9.6190E-03       1.4113E+00
        2            5.6221E+01         1.0000E-09       1.4113E+00
 ======================================================================
 ITERATION STEP   3
 CPU time [min]:     0.477                   Wall time [min]:     0.016
 

 SCF control                  : diis
 Damping factor/level shift   : 0.000/0.000
 DIIS [start/end/frequency]   :   2 /200 /  1

 Constructing Fock-matrix...
 
 Pipek-Mezey localization...
 Step  Convergence
   1   0.030208780818
   2   0.029344966605
   3   0.000083021369
   4   0.000000149728
   5   0.000000003244
 CPU time [min]:     0.499                   Wall time [min]:     0.017
 
 Constructing local fitting domains...
 Local fitting domains are unchanged.
 
 First step of Coulomb + first step of exchange...
 Exchange contribution is evaluated for MOs 1 to 5.
   1% done.
  14% done.
  27% done.
  43% done.
  62% done.
  75% done.
  88% done.
 100% done.
 Fitting and assembly step of exchange...
 CPU time [min]:     0.618                   Wall time [min]:     0.018
 
 Second step of Coulomb...
   1% done.
  14% done.
  27% done.
  43% done.
  62% done.
  75% done.
  88% done.
 100% done.
 CPU time [min]:     0.661                   Wall time [min]:     0.019
 
 Gradient norm:      9.9659E-03
 DIIS is running in this iteration step.
 RMS of [F,P]:                                         0.00008785115757
 RMS of difference density:                            0.00026895172095
 Gap [au]:  0.45617808
 ALPHA OCC:   5
 BETA  OCC:   5
 
 ***HARTREE-FOCK ENERGY IN STEP   3 IS        -56.2223458089285089 [AU]
 
 Step comparison  Energy Drift [au]  DIIS error drift  Gradient drift
        2            9.3857E-04         2.6211E-04       4.2948E-02
 ======================================================================
 ITERATION STEP   4
 CPU time [min]:     0.684                   Wall time [min]:     0.020
 

 SCF control                  : diis
 Damping factor/level shift   : 0.000/0.000
 DIIS [start/end/frequency]   :   2 /200 /  1

 Constructing Fock-matrix...
 
 Pipek-Mezey localization...
 Step  Convergence
   1   0.019948473188
   2   0.019645307161
   3   0.000003968459
   4   0.000000027080
   5   0.000000000340
 CPU time [min]:     0.707                   Wall time [min]:     0.020
 
 Constructing local fitting domains...
 Local fitting domains are unchanged.
 
 First step of Coulomb + first step of exchange...
 Exchange contribution is evaluated for MOs 1 to 5.
   1% done.
  14% done.
  27% done.
  43% done.
  62% done.
  75% done.
  88% done.
 100% done.
 Fitting and assembly step of exchange...
 CPU time [min]:     0.825                   Wall time [min]:     0.022
 
 Second step of Coulomb...
   1% done.
  14% done.
  27% done.
  43% done.
  62% done.
  75% done.
  88% done.
 100% done.
 CPU time [min]:     0.868                   Wall time [min]:     0.023
 
 Gradient norm:      4.2187E-03
 DIIS is running in this iteration step.
 RMS of [F,P]:                                         0.00003329894036
 RMS of difference density:                            0.00006530730966
 Gap [au]:  0.45411863
 ALPHA OCC:   5
 BETA  OCC:   5
 
 ***HARTREE-FOCK ENERGY IN STEP   4 IS        -56.2224811474793427 [AU]
 
 Step comparison  Energy Drift [au]  DIIS error drift  Gradient drift
        3            1.3534E-04         5.4552E-05       5.7471E-03
 ======================================================================
 ITERATION STEP   5
 CPU time [min]:     0.890                   Wall time [min]:     0.023
 

 SCF control                  : diis
 Damping factor/level shift   : 0.000/0.000
 DIIS [start/end/frequency]   :   2 /200 /  1

 Constructing Fock-matrix...
 
 Pipek-Mezey localization...
 Step  Convergence
   1   0.040846158271
   2   0.036521233720
   3   0.000425807410
   4   0.000007472886
   5   0.000000216773
   6   0.000000006305
 CPU time [min]:     0.913                   Wall time [min]:     0.023
 
 Constructing local fitting domains...
 Local fitting domains are unchanged.
 
 First step of Coulomb + first step of exchange...
 Exchange contribution is evaluated for MOs 1 to 5.
   1% done.
  14% done.
  27% done.
  43% done.
  62% done.
  75% done.
  88% done.
 100% done.
 Fitting and assembly step of exchange...
 CPU time [min]:     1.032                   Wall time [min]:     0.025
 
 Second step of Coulomb...
   1% done.
  14% done.
  27% done.
  43% done.
  62% done.
  75% done.
  88% done.
 100% done.
 CPU time [min]:     1.074                   Wall time [min]:     0.026
 
 Gradient norm:      1.3677E-03
 DIIS is running in this iteration step.
 RMS of [F,P]:                                         0.00001639533450
 RMS of difference density:                            0.00003325739438
 Gap [au]:  0.45433702
 ALPHA OCC:   5
 BETA  OCC:   5
 
 ***HARTREE-FOCK ENERGY IN STEP   5 IS        -56.2224991888268733 [AU]
 
 Step comparison  Energy Drift [au]  DIIS error drift  Gradient drift
        4            1.8041E-05         1.6904E-05       2.8510E-03
 ======================================================================
 ITERATION STEP   6
 CPU time [min]:     1.097                   Wall time [min]:     0.026
 

 SCF control                  : diis
 Damping factor/level shift   : 0.000/0.000
 DIIS [start/end/frequency]   :   2 /200 /  1

 Constructing Fock-matrix...
 
 Pipek-Mezey localization...
 Step  Convergence
   1   0.041341640916
   2   0.039641604484
   3   0.000347001846
   4   0.000007697289
   5   0.000000207781
   6   0.000000006306
   7   0.000000000202
   8   0.000000000007
   9   0.000000000000
 CPU time [min]:     1.121                   Wall time [min]:     0.027
 
 Constructing local fitting domains...
 Local fitting domains are unchanged.
 
 First step of Coulomb + first step of exchange...
 Exchange contribution is evaluated for MOs 1 to 5.
   1% done.
  14% done.
  27% done.
  43% done.
  62% done.
  75% done.
  88% done.
 100% done.
 Fitting and assembly step of exchange...
 CPU time [min]:     1.240                   Wall time [min]:     0.029
 
 Second step of Coulomb...
   1% done.
  14% done.
  27% done.
  43% done.
  62% done.
  75% done.
  88% done.
 100% done.
 CPU time [min]:     1.283                   Wall time [min]:     0.029
 
 Gradient norm:      4.1087E-04
 DIIS is running in this iteration step.
 RMS of [F,P]:                                         0.00000258566656
 RMS of difference density:                            0.00000646456216
 Gap [au]:  0.45416060
 ALPHA OCC:   5
 BETA  OCC:   5
 
 ***HARTREE-FOCK ENERGY IN STEP   6 IS        -56.2225025751342002 [AU]
 
 Step comparison  Energy Drift [au]  DIIS error drift  Gradient drift
        5            3.3863E-06         1.3810E-05       9.5683E-04
 ======================================================================
 ITERATION STEP   7
 CPU time [min]:     1.307                   Wall time [min]:     0.030
 

 SCF control                  : diis
 Damping factor/level shift   : 0.000/0.000
 DIIS [start/end/frequency]   :   2 /200 /  1

 Constructing Fock-matrix...
 
 Pipek-Mezey localization...
 Step  Convergence
   1   0.041591556757
   2   0.039338985795
   3   0.000388406192
   4   0.000008327182
   5   0.000000230822
   6   0.000000007305
   7   0.000000000229
   8   0.000000000007
   9   0.000000000000
 CPU time [min]:     1.330                   Wall time [min]:     0.030
 
 Constructing local fitting domains...
 Local fitting domains are unchanged.
 
 First step of Coulomb + first step of exchange...
 Exchange contribution is evaluated for MOs 1 to 5.
   1% done.
  14% done.
  27% done.
  43% done.
  62% done.
  75% done.
  88% done.
 100% done.
 Fitting and assembly step of exchange...
 CPU time [min]:     1.449                   Wall time [min]:     0.032
 
 Second step of Coulomb...
   1% done.
  14% done.
  27% done.
  43% done.
  62% done.
  75% done.
  88% done.
 100% done.
 CPU time [min]:     1.492                   Wall time [min]:     0.033
 
 Gradient norm:      4.4551E-05
 DIIS is running in this iteration step.
 RMS of [F,P]:                                         0.00000035635980
 RMS of difference density:                            0.00000086272624
 Gap [au]:  0.45415599
 ALPHA OCC:   5
 BETA  OCC:   5
 
 ***HARTREE-FOCK ENERGY IN STEP   7 IS        -56.2225026538104586 [AU]
 
 Step comparison  Energy Drift [au]  DIIS error drift  Gradient drift
        6            7.8676E-08         2.2293E-06       3.6632E-04
 ======================================================================
 ITERATION STEP   8
 CPU time [min]:     1.515                   Wall time [min]:     0.033
 

 SCF control                  : diis
 Damping factor/level shift   : 0.000/0.000
 DIIS [start/end/frequency]   :   2 /200 /  1

 Constructing Fock-matrix...
 
 Pipek-Mezey localization...
 Step  Convergence
   1   0.041800319128
   2   0.039387264082
   3   0.000392041414
   4   0.000008430476
   5   0.000000249804
   6   0.000000007320
   7   0.000000000245
   8   0.000000000008
   9   0.000000000000
 CPU time [min]:     1.538                   Wall time [min]:     0.034
 
 Constructing local fitting domains...
 Local fitting domains are unchanged.
 
 First step of Coulomb + first step of exchange...
 Exchange contribution is evaluated for MOs 1 to 5.
   1% done.
  14% done.
  27% done.
  43% done.
  62% done.
  75% done.
  88% done.
 100% done.
 Fitting and assembly step of exchange...
 CPU time [min]:     1.659                   Wall time [min]:     0.035
 
 Second step of Coulomb...
   1% done.
  14% done.
  27% done.
  43% done.
  62% done.
  75% done.
  88% done.
 100% done.
 CPU time [min]:     1.701                   Wall time [min]:     0.036
 
 Gradient norm:      1.7002E-05
 DIIS is running in this iteration step.
 RMS of [F,P]:                                         0.00000012683591
 RMS of difference density:                            0.00000027892936
 Gap [au]:  0.45415602
 ALPHA OCC:   5
 BETA  OCC:   5
 
 ***HARTREE-FOCK ENERGY IN STEP   8 IS        -56.2225026565240640 [AU]
 
 Step comparison  Energy Drift [au]  DIIS error drift  Gradient drift
        7            2.7136E-09         2.2952E-07       2.7549E-05
 ======================================================================
 ITERATION STEP   9
 CPU time [min]:     1.724                   Wall time [min]:     0.037
 

 SCF control                  : diis
 Damping factor/level shift   : 0.000/0.000
 DIIS [start/end/frequency]   :   2 /200 /  1

 Constructing Fock-matrix...
 
 Pipek-Mezey localization...
 Step  Convergence
   1   0.042058925892
   2   0.038992807224
   3   0.000346765811
   4   0.000006909556
   5   0.000000184570
   6   0.000000005754
   7   0.000000000193
   8   0.000000000006
   9   0.000000000000
 CPU time [min]:     1.747                   Wall time [min]:     0.037
 
 Constructing local fitting domains...
 Local fitting domains are unchanged.
 
 First step of Coulomb + first step of exchange...
 Exchange contribution is evaluated for MOs 1 to 5.
   1% done.
  14% done.
  27% done.
  43% done.
  62% done.
  75% done.
  88% done.
 100% done.
 Fitting and assembly step of exchange...
 CPU time [min]:     1.866                   Wall time [min]:     0.039
 
 Second step of Coulomb...
   1% done.
  14% done.
  27% done.
  43% done.
  62% done.
  75% done.
  88% done.
 100% done.
 CPU time [min]:     1.909                   Wall time [min]:     0.040
 
 Gradient norm:      4.0463E-06
 DIIS is running in this iteration step.
 RMS of [F,P]:                                         0.00000002950938
 RMS of difference density:                            0.00000008104094
 Gap [au]:  0.45415585
 ALPHA OCC:   5
 BETA  OCC:   5
 
 ***HARTREE-FOCK ENERGY IN STEP   9 IS        -56.2225026568725923 [AU]
 
 Step comparison  Energy Drift [au]  DIIS error drift  Gradient drift
        8            3.4853E-10         9.7327E-08       1.2956E-05
 ======================================================================
 ITERATION STEP  10
 CPU time [min]:     1.933                   Wall time [min]:     0.040
 

 SCF control                  : diis
 Damping factor/level shift   : 0.000/0.000
 DIIS [start/end/frequency]   :   2 /200 /  1

 Constructing Fock-matrix...
 
 Pipek-Mezey localization...
 Step  Convergence
   1   0.042282888463
   2   0.039727654838
   3   0.000360083745
   4   0.000008057684
   5   0.000000247097
   6   0.000000006710
   7   0.000000000214
   8   0.000000000007
   9   0.000000000000
 CPU time [min]:     1.957                   Wall time [min]:     0.040
 
 Constructing local fitting domains...
 Local fitting domains are unchanged.
 
 First step of Coulomb + first step of exchange...
 Exchange contribution is evaluated for MOs 1 to 5.
   1% done.
  14% done.
  27% done.
  43% done.
  62% done.
  75% done.
  88% done.
 100% done.
 Fitting and assembly step of exchange...
 CPU time [min]:     2.076                   Wall time [min]:     0.042
 
 Second step of Coulomb...
   1% done.
  14% done.
  27% done.
  43% done.
  62% done.
  75% done.
  88% done.
 100% done.
 CPU time [min]:     2.121                   Wall time [min]:     0.043
 
 Gradient norm:      2.5434E-07
 DIIS is running in this iteration step.
 RMS of [F,P]:                                         0.00000000232364
 RMS of difference density:                            0.00000001588518
 Gap [au]:  0.45415584
 ALPHA OCC:   5
 BETA  OCC:   5
 
 ***HARTREE-FOCK ENERGY IN STEP  10 IS        -56.2225026568948891 [AU]
 
 Step comparison  Energy Drift [au]  DIIS error drift  Gradient drift
        9            2.2297E-11         2.7186E-08       3.7920E-06
 ======================================================================
 ITERATION STEP  11
 CPU time [min]:     2.146                   Wall time [min]:     0.043
 

 SCF control                  : diis
 Damping factor/level shift   : 0.000/0.000
 DIIS [start/end/frequency]   :   2 /200 /  1

 Constructing Fock-matrix...
 
 Pipek-Mezey localization...
 Step  Convergence
   1   0.041593042493
   2   0.038786190818
   3   0.000346425847
   4   0.000006903819
   5   0.000000185834
   6   0.000000005826
   7   0.000000000178
   8   0.000000000006
   9   0.000000000000
 CPU time [min]:     2.169                   Wall time [min]:     0.044
 
 Constructing local fitting domains...
 Local fitting domains are unchanged.
 
 First step of Coulomb + first step of exchange...
 Exchange contribution is evaluated for MOs 1 to 5.
   1% done.
  14% done.
  27% done.
  43% done.
  62% done.
  75% done.
  88% done.
 100% done.
 Fitting and assembly step of exchange...
 CPU time [min]:     2.288                   Wall time [min]:     0.046
 
 Second step of Coulomb...
   1% done.
  14% done.
  27% done.
  43% done.
  62% done.
  75% done.
  88% done.
 100% done.
 CPU time [min]:     2.331                   Wall time [min]:     0.046
 
 Gradient norm:      2.0415E-08
 DIIS is running in this iteration step.
 RMS of [F,P]:                                         0.00000000022852
 RMS of difference density:                            0.00000000088208
 Gap [au]:  0.45415585
 ALPHA OCC:   5
 BETA  OCC:   5
 
 ***HARTREE-FOCK ENERGY IN STEP  11 IS        -56.2225026568950170 [AU]
 
 Step comparison  Energy Drift [au]  DIIS error drift  Gradient drift
       10            1.2790E-13         2.0951E-09       2.3393E-07
 
 The SCF iteration has converged.
 An extra iteration will be performed to calculate accurate SCF energy.
 
 ======================================================================
 ITERATION STEP  12
 CPU time [min]:     2.355                   Wall time [min]:     0.047
 

 SCF control                  : diis
 Damping factor/level shift   : 0.000/0.000
 DIIS [start/end/frequency]   :   2 /200 /  1

 Constructing Fock-matrix...
 
 Pipek-Mezey localization...
 Step  Convergence
   1   0.042011674647
   2   0.038740709719
   3   0.000345390665
   4   0.000006880186
   5   0.000000187906
   6   0.000000005885
   7   0.000000000181
   8   0.000000000006
   9   0.000000000000
 CPU time [min]:     2.379                   Wall time [min]:     0.047
 
 Constructing local fitting domains...
 Local fitting domains are unchanged.
 
 First step of Coulomb + first step of exchange...
 Exchange contribution is evaluated for MOs 1 to 5.
   1% done.
  14% done.
  27% done.
  43% done.
  62% done.
  75% done.
  88% done.
 100% done.
 Fitting and assembly step of exchange...
 CPU time [min]:     2.497                   Wall time [min]:     0.049
 
 Second step of Coulomb...
   1% done.
  14% done.
  27% done.
  43% done.
  62% done.
  75% done.
  88% done.
 100% done.
 CPU time [min]:     2.540                   Wall time [min]:     0.050
 
 Gradient norm:      4.8480E-09
 RMS of [F,P]:                                         0.00000000005771
 RMS of difference density:                            0.00000000013775
 Gap [au]:  0.45415584
 ALPHA OCC:   5
 BETA  OCC:   5
 
 ***HARTREE-FOCK ENERGY IN STEP  12 IS        -56.2225026568950170 [AU]
 
 Step comparison  Energy Drift [au]  DIIS error drift  Gradient drift
       11            0.0000E+00         1.7081E-10       1.5567E-08
 Warning! The energy goes uphill (with respect to previous step).
 ======================================================================
 
 SUCCESS...
 THE SCF ITERATION HAS CONVERGED!
 
                   A   
 FINAL ALPHA OCC:   5
 FINAL BETA  OCC:   5
 
 ***FINAL HARTREE-FOCK ENERGY:        -56.2225026568950170 [AU]
 
 Orbital energies [au]:
      Irrep         Alpha          Beta
    1   A        -15.544729     -15.544729
    2   A         -1.133942      -1.133942
    3   A         -0.623507      -0.623507
    4   A         -0.623475      -0.623475
    5   A         -0.427648      -0.427648
 
    6   A          0.026508       0.026508
    7   A          0.043769       0.043769
    8   A          0.043769       0.043769
    9   A          0.098150       0.098150
   10   A          0.131665       0.131665
   11   A          0.139410       0.139410
   12   A          0.139410       0.139410
   13   A          0.183211       0.183211
   14   A          0.183213       0.183213
   15   A          0.188377       0.188377
   16   A          0.188379       0.188379
   17   A          0.209468       0.209468
   18   A          0.283032       0.283032
   19   A          0.293037       0.293037
   20   A          0.297303       0.297303
   21   A          0.297303       0.297303
   22   A          0.352123       0.352123
   23   A          0.381140       0.381140
   24   A          0.381150       0.381150
   25   A          0.388485       0.388485
   26   A          0.388487       0.388487
   27   A          0.422399       0.422399
   28   A          0.473740       0.473740
   29   A          0.473743       0.473743
   30   A          0.558863       0.558863
   31   A          0.558870       0.558870
   32   A          0.559951       0.559951
   33   A          0.593086       0.593086
   34   A          0.683580       0.683580
   35   A          0.683583       0.683583
   36   A          0.698046       0.698046
   37   A          0.698510       0.698510
   38   A          0.716532       0.716532
   39   A          0.716532       0.716532
   40   A          0.749951       0.749951
   41   A          0.777384       0.777384
   42   A          0.777404       0.777404
   43   A          0.777811       0.777811
   44   A          0.828540       0.828540
   45   A          0.828546       0.828546
   46   A          0.847300       0.847300
   47   A          0.858401       0.858401
   48   A          0.858405       0.858405
   49   A          0.873167       0.873167
   50   A          0.873178       0.873178
   51   A          0.980741       0.980741
   52   A          1.015842       1.015842
   53   A          1.015854       1.015854
   54   A          1.134240       1.134240
   55   A          1.225088       1.225088
   56   A          1.225091       1.225091
   57   A          1.350651       1.350651
   58   A          1.350658       1.350658
[...]
  159    1     0.994352        3
  160    2     0.985858        2    3
  161    2     0.999954        1    3
  162    2     0.993840        2    3
  163    1     0.996660        3
  164    1     0.998526        3
  165    1     0.999675        3
  166    1     0.998523        3
  167    1     0.996915        3
  168    1     0.997273        3
  169    1     0.996708        3
  170    2     0.989429        3    4
  171    1     0.991281        3
  172    1     0.995911        3
  173    1     0.992735        3
  174    2     0.999698        1    3
  175    1     0.984876        3
  176    2     0.988889        2    3
  177    2     0.999869        1    4
  178    2     0.999884        1    4
  179    2     0.999872        1    4
  180    2     0.999691        1    4
  181    1     0.993848        4
  182    1     0.997893        4
  183    1     0.998579        4
  184    1     0.998630        4
  185    1     0.985208        4
  186    1     0.995440        4
  187    1     0.989232        4
  188    2     0.999857        1    4
  189    2     0.999128        1    4
  190    2     0.985412        3    4
  191    2     0.999905        1    4
  192    2     0.998735        1    4
  193    2     0.998765        1    4
  194    1     0.998849        4
  195    1     0.998973        4
  196    1     0.999305        4
  197    1     0.999828        4
  198    1     0.999378        4
  199    2     0.999517        1    4
  200    2     0.999959        1    4
  201    1     0.988685        4
  202    1     0.997325        4
  203    1     0.984373        4
  204    2     0.998098        1    4
  205    2     0.999954        1    4
  206    2     0.985852        3    4
  207    1     0.994925        4
  208    2     0.994422        2    4
  209    1     0.996658        4
  210    1     0.998653        4
  211    1     0.996870        4
  212    1     0.998521        4
  213    1     0.999717        4
  214    1     0.997142        4
  215    1     0.996707        4
  216    2     0.989431        2    4
  217    1     0.991917        4
  218    2     0.999694        1    4
  219    1     0.992739        4
  220    1     0.996245        4
  221    1     0.984203        4
  222    2     0.988891        3    4
 CPU time [min]:     0.096                   Wall time [min]:     0.004
 
 C1 point group was detected
 
 Constructing orbital domains...
 CPU time [min]:     0.156                   Wall time [min]:     0.005
 
 Dimensions of the primary domains:     Minimum / Average / Maximum
 
 Number of atoms in domain:                   4       4.0         4
 Number of atoms in occ BP domain:            1       1.8         2
 Number of atoms in PAO BP domain:            1       1.4         4
 Number of atomic orbitals:                 218     218.0       218
 Number of PAOs:                             80     114.5       126
 
 Prescreening pairs...
 CPU time [min]:     0.176                   Wall time [min]:     0.006
 
 Occupied LMO domain definition with Boughton-Pulay completeness:    0.9999900000
 
   MO  Natoms  Completeness   Atoms
    1    4     1.000000        1    2    3    4
    2    4     1.000000        1    2    3    4
    3    4     1.000000        1    2    3    4
    4    4     1.000000        1    2    3    4
 
 Executing the Boughton-Pulay algorithm...
  with occ MO completeness:    0.9850000000
 
   MO  Natoms  Completeness   Atoms
    1    1     0.999820        1
    2    2     0.999927        1    4
    3    2     0.999927        1    3
    4    2     0.999927        1    2
 CPU time [min]:     0.209                   Wall time [min]:     0.006
 
 Dimensions of the occupied LMO domains:  Minimum / Average / Maximum
 
 Number of atoms in domain:                   4       4.0         4
 Number of atomic orbitals:                 218     218.0       218
 
 Total number of pairs:   6
 Number of distant pairs: 0 (0.0%)
 Sum of multipole based pair energies:      0.0000000000
 
 CPU time [min]:     0.216                   Wall time [min]:     0.006
 Number of strong pairs: 6 (100.0%)
 chtol from minp:   1.000000000000000E-006
        1.85 MB memory is used for domain independent quantities
 
 Calculating the contribution of occupied LMOs...
    using local fitting domains
 
 MO:     1
 Number of atoms in domain:       4
    Number of atoms in PCD:       4
 Number of atomic orbitals:     218
 Number of atoms for local DF:    4
 Number of fitting functions:   408 (100.00%)
 Number of occupied orbitals:     4
 Number of virtual  orbitals:   213
 Number of Cholesky vectors:     10
 MP2 energy in ED [au]:          -0.065430967812
 Number of occupied LNOs:         4 (100.00%)
 Number of virtual  LNOs:       129  (60.56%)
 Number of Cholesky vectors:     10
 MP2 energy in LIS [au]:         -0.065380895651
 Correction for frozen LNO [au]: -0.000050072162     (0.077%)
 Number of NAFs:                400  (98.04%)
 CPU time [min]:     2.667                   Wall time [min]:     0.066
 

 Direct DF-CCSD(T) calculation
 
 Convergence criterion:  1.0E-05
 
 Number of occupied/virtual/auxiliary orbitals:     4   129   400
    220.40 MB is the minimal memory requirement for (T)
     94.64 MB is the minimal memory requirement for CCSD
 
 MP2 correlation energy [au]:       -0.251432673801
 
 LMP2 domain correlation energy contribution [au]:       -0.065380893568
 
 CPU time [min]:     2.739                   Wall time [min]:     0.067
 
 
 Starting CCSD iterations...
 
                     Residual norm       Correlation Energy
 Iteration  1        0.157191174909       -0.255567553263
 Iteration  2        0.037181516555       -0.260838402894
 Iteration  3        0.012265435880       -0.261752967683
 Iteration  4        0.002379393235       -0.261728794092
 Iteration  5        0.000750968112       -0.261751465120
 Iteration  6        0.000231481792       -0.261750936966
 Iteration  7        0.000060720553       -0.261750380535
 
 CCSD iteration has converged in  7 steps.
     1167.84 MB memory was utilized by CCSD
 
 T1 diagnostic:      8.314E-03            D1 diagnostic:      1.689E-02
 
 T1 contribution [au]:                         0.000000000000
 CCSD correlation energy [au]:                -0.066989203221
 
 CPU time [min]:     3.840                   Wall time [min]:     0.085
 
 Calculation of (T) correction...
 
 Laplace threshold, nquadmin:  1.00E-03   4
 Number of quadrature points:    4
 
      221.42 MB memory is utilized for (T)

 0%       25%       50%       75%       100%
 |---------|---------|---------|---------| 
 
 (T) correction [au]:                   -0.002500892194
 CCSD(T) correlation energy [au]:       -0.069490095414
 
 CPU time [min]:     4.492                   Wall time [min]:     0.096
 
 MO:     2
 Number of atoms in domain:       4
    Number of atoms in PCD:       4
 Number of atomic orbitals:     218
 Number of atoms for local DF:    4
 Number of fitting functions:   408 (100.00%)
 Number of occupied orbitals:     4
 Number of virtual  orbitals:   213
 Number of Cholesky vectors:     10
 MP2 energy in ED [au]:          -0.063048788898
 Number of occupied LNOs:         4 (100.00%)
 Number of virtual  LNOs:       130  (61.03%)
 Number of Cholesky vectors:      9
 MP2 energy in LIS [au]:         -0.063006612489
 Correction for frozen LNO [au]: -0.000042176409     (0.067%)
 Number of NAFs:                394  (96.57%)
 CPU time [min]:     6.524                   Wall time [min]:     0.147
 

 Direct DF-CCSD(T) calculation
 
 Convergence criterion:  1.0E-05
 
 Number of occupied/virtual/auxiliary orbitals:     4   130   394
    223.55 MB is the minimal memory requirement for (T)
     94.83 MB is the minimal memory requirement for CCSD
 
 MP2 correlation energy [au]:       -0.251692116619
 
 LMP2 domain correlation energy contribution [au]:       -0.063006605919
 
 CPU time [min]:     6.593                   Wall time [min]:     0.148
 
 
 Starting CCSD iterations...
 
                     Residual norm       Correlation Energy
 Iteration  1        0.158217947603       -0.255690291664
 Iteration  2        0.036997813498       -0.260996035946
 Iteration  3        0.012122738460       -0.261853560818
 Iteration  4        0.002281093938       -0.261841680128
 Iteration  5        0.000614680986       -0.261862100113
 Iteration  6        0.000195265070       -0.261861864427
 Iteration  7        0.000049878482       -0.261861357556
 
 CCSD iteration has converged in  7 steps.
     1201.57 MB memory was utilized by CCSD
 
 T1 diagnostic:      8.129E-03            D1 diagnostic:      1.630E-02
 
 T1 contribution [au]:                         0.000000000000
 CCSD correlation energy [au]:                -0.065554352155
 
 CPU time [min]:     7.688                   Wall time [min]:     0.166
 
 Calculation of (T) correction...
 
 Laplace threshold, nquadmin:  1.00E-03   4
 Number of quadrature points:    4
 
      224.59 MB memory is utilized for (T)

 0%       25%       50%       75%       100%
 |---------|---------|---------|---------| 
 
 (T) correction [au]:                   -0.002180055878
 CCSD(T) correlation energy [au]:       -0.067734408033
 
 CPU time [min]:     8.268                   Wall time [min]:     0.176
 
 MO:     3
 Number of atoms in domain:       4
    Number of atoms in PCD:       4
 Number of atomic orbitals:     218
 Number of atoms for local DF:    4
 Number of fitting functions:   408 (100.00%)
 Number of occupied orbitals:     4
 Number of virtual  orbitals:   213
 Number of Cholesky vectors:     10
 MP2 energy in ED [au]:          -0.063049989042
 Number of occupied LNOs:         4 (100.00%)
 Number of virtual  LNOs:       130  (61.03%)
 Number of Cholesky vectors:      9
 MP2 energy in LIS [au]:         -0.063007806463
 Correction for frozen LNO [au]: -0.000042182579     (0.067%)
 Number of NAFs:                394  (96.57%)
 CPU time [min]:    10.296                   Wall time [min]:     0.226
 

 Direct DF-CCSD(T) calculation
 
 Convergence criterion:  1.0E-05
 
 Number of occupied/virtual/auxiliary orbitals:     4   130   394
    223.55 MB is the minimal memory requirement for (T)
     94.83 MB is the minimal memory requirement for CCSD
 
 MP2 correlation energy [au]:       -0.251691858550
 
 LMP2 domain correlation energy contribution [au]:       -0.063007799924
 
 CPU time [min]:    10.364                   Wall time [min]:     0.227
 
 
 Starting CCSD iterations...
 
                     Residual norm       Correlation Energy
 Iteration  1        0.158419146545       -0.255690055080
 Iteration  2        0.037019419614       -0.260995573211
 Iteration  3        0.012124025930       -0.261853415582
 Iteration  4        0.002281712247       -0.261841393708
 Iteration  5        0.000615074756       -0.261861868489
 Iteration  6        0.000195329203       -0.261861647425
 Iteration  7        0.000049934229       -0.261861133998
 
 CCSD iteration has converged in  7 steps.
     1201.57 MB memory was utilized by CCSD
 
 T1 diagnostic:      8.129E-03            D1 diagnostic:      1.630E-02
 
 T1 contribution [au]:                         0.000000000000
 CCSD correlation energy [au]:                -0.065555866204
 
 CPU time [min]:    11.454                   Wall time [min]:     0.245
 
 Calculation of (T) correction...
 
 Laplace threshold, nquadmin:  1.00E-03   4
 Number of quadrature points:    4
 
      224.59 MB memory is utilized for (T)

 0%       25%       50%       75%       100%
 |---------|---------|---------|---------| 
 
 (T) correction [au]:                   -0.002180157306
 CCSD(T) correlation energy [au]:       -0.067736023510
 
 CPU time [min]:    12.037                   Wall time [min]:     0.255
 
 MO:     4
 Number of atoms in domain:       4
    Number of atoms in PCD:       4
 Number of atomic orbitals:     218
 Number of atoms for local DF:    4
 Number of fitting functions:   408 (100.00%)
 Number of occupied orbitals:     4
 Number of virtual  orbitals:   213
 Number of Cholesky vectors:     10
 MP2 energy in ED [au]:          -0.063048982490
 Number of occupied LNOs:         4 (100.00%)
 Number of virtual  LNOs:       130  (61.03%)
 Number of Cholesky vectors:      9
 MP2 energy in LIS [au]:         -0.063006804858
 Correction for frozen LNO [au]: -0.000042177632     (0.067%)
 Number of NAFs:                394  (96.57%)
 CPU time [min]:    14.067                   Wall time [min]:     0.306
 

 Direct DF-CCSD(T) calculation
 
 Convergence criterion:  1.0E-05
 
 Number of occupied/virtual/auxiliary orbitals:     4   130   394
    223.55 MB is the minimal memory requirement for (T)
     94.83 MB is the minimal memory requirement for CCSD
 
 MP2 correlation energy [au]:       -0.251692065464
 
 LMP2 domain correlation energy contribution [au]:       -0.063006798280
 
 CPU time [min]:    14.136                   Wall time [min]:     0.307
 
 
 Starting CCSD iterations...
 
                     Residual norm       Correlation Energy
 Iteration  1        0.158158783653       -0.255690244078
 Iteration  2        0.036991413915       -0.260996059193
 Iteration  3        0.012122362502       -0.261853493492
 Iteration  4        0.002280919623       -0.261841653635
 Iteration  5        0.000614578465       -0.261862057564
 Iteration  6        0.000195249357       -0.261861817811
 Iteration  7        0.000049863331       -0.261861312788
 
 CCSD iteration has converged in  7 steps.
     1201.57 MB memory was utilized by CCSD
 
 T1 diagnostic:      8.129E-03            D1 diagnostic:      1.630E-02
 
 T1 contribution [au]:                         0.000000000000
 CCSD correlation energy [au]:                -0.065554613324
 
 CPU time [min]:    15.253                   Wall time [min]:     0.325
 
 Calculation of (T) correction...
 
 Laplace threshold, nquadmin:  1.00E-03   4
 Number of quadrature points:    4
 
      224.59 MB memory is utilized for (T)

 0%       25%       50%       75%       100%
 |---------|---------|---------|---------| 
 
 (T) correction [au]:                   -0.002180073162
 CCSD(T) correlation energy [au]:       -0.067734686487
 
 CPU time [min]:    15.854                   Wall time [min]:     0.335
 
 **********************************************************************
 Dimensions of the extended domains:    Minimum / Average / Maximum
 
 Number of atoms in domain:                   4       4.0         4
 Number of atomic orbitals:                 218     218.0       218
 Number of fitting functions:               408     408.0       408
 Number of occupied localized MOs:            4       4.0         4
 Number of PAOs:                            213     213.0       213
 Number of occupied LNOs:                     4       4.0         4
 Number of virtual  LNOs:                   129     129.8       130
 Number of NAFs:                            394     395.5       400
 
 **********************************************************************
 Distant (and weak) pair contributions, corrections
 
 Sum of pair energies [au]:                     0.000000000000    (0.000%)
 Sum of energy corrections [au]:               -0.000176608782    (0.069%)
 Pair energies + LNO corrections [au]:         -0.000176608782
 Sum of LMP2 contributions [au]:               -0.254578728242
 
 **********************************************************************
  Time of manipulations in the EDs:      max CPU/Wall [s]  all CPU/Wall [min]
 
 PD construction & multipole pair E      12.88     0.24     0.21     0.00
 Construct MO basis of the ED             1.87     0.03     0.12     0.00
 (mu,nu|P) evaluation & trf 2 (ai|P)      9.42     0.15     0.53     0.01
 Evaluate MP2 energy of the ED            0.27     0.00     0.02     0.00
 Transformations to the LNO basis         2.14     0.03     0.14     0.00
 Build W_PQ (Jai or Jpi part)             0.69     0.02     0.02     0.00
 Evaluate MP2 energy of the LIS           0.19     0.00     0.01     0.00
 (mu,nu|P) evaluation & trf 2 J(abQ)    113.30     2.52     6.43     0.14
 Total of the above for all EDs         127.89     2.76     7.26     0.15
 
 **********************************************************************
 Maximum memory requirement [MB]:       
 
 PD construction & multipole pair E          4.2
 AO integral evaluation in the EDs        3002.4
 (mu,nu|P) evaluation & trf 2 (aI|P)      3034.0
 Evaluate MP2 energy in the EDs             20.0
 Transformation to the LNO basis            10.9
 (mu,nu|P) to Jab transformation          3009.7
 Evaluate MP2 energy in the LIS             13.9
 Minimum requirement for LIS CCSD           94.8
 Actually allocated  for LIS CCSD         1201.6
 Minimum requirement for LIS (T)           223.6
 Actually allocated  for LIS (T)           224.6
 
 ======================================================================
 ======================================================================
 
 
 
 ======================================================================
 ======================================================================
 
 Final local CC results:
 
 Minimum number of correlated electrons:         8       (100.0%)
 Maximum number of correlated electrons:         8       (100.0%)
 Average number of correlated electrons:         8.0     (100.0%)
 Minimum number of correlated orbitals:        133       ( 61.3%)
 Maximum number of correlated orbitals:        134       ( 61.8%)
 Average number of correlated orbitals:        133.8     ( 61.6%)
 
 CPU time for integral calculations [min]:                  0.421
 Wall time for integral calculations [min]:                 0.009
 
 CPU time for SCF calculation [min]:                        2.724
 Wall time for SCF calculation [min]:                       0.083
 
 CPU time for orbital localization [min]:                   0.222
 Wall time for orbital localization [min]:                  0.037
 
 CPU time for integral transformations [min]:               8.847
 Wall time for integral transformations [min]:              0.220
 
 Reference energy [au]:                                   -56.222502656895
 
 LMP2 correlation energy [au]:                             -0.254578728242
 Total LMP2 energy [au]:                                  -56.477081385137
 
 Total MP2 correction for dropped NAFs [au]:               -0.000000021770
 Total MP2 correction [au]:                                -0.000176630552
 
 CPU time for CCSD calculations [min]:                      4.634
 Total CPU time for CCSD [min]:                            16.848
 Wall time for CCSD calculations [min]:                     0.074
 Total wall time for CCSD [min]:                            0.424
 
 CCSD correlation energy [au]:                             -0.263654034904
 Total CCSD energy [au]:                                  -56.486156691799
 CCSD correlation energy + 0.5 MP2 corrections [au]:       -0.263742350180
 Total LNO-CCSD energy with MP2 corrections [au]:         -56.486245007075
 
 CPU time for (T) corrections [min]:                        2.417
 Total CPU time for CCSD(T) [min]:                         19.265
 Wall time for (T) corrections [min]:                       0.041
 Total wall time for CCSD(T) [min]:                         0.465
 
 Total (T) correlation energy contribution [au]:           -0.009041178540
 Total (T) correlation energy+0.5 MP2 correction [au]:     -0.009129493816
 CCSD(T) correlation energy [au]:                          -0.272695213444
 Total CCSD(T) energy [au]:                               -56.495197870339
 CCSD(T) correlation energy + MP2 corrections [au]:        -0.272871843996
 Total LNO-CCSD(T) energy with MP2 corrections [au]:      -56.495374500891
 
 ======================================================================
 ======================================================================
 
 ************************ 2026-02-26 16:03:49 *************************
                      Normal termination of mrcc.
 **********************************************************************
