 **********************************************************************
                          MRCC program system
 **********************************************************************
 
                              Written by
     Mihaly Kallay, Peter R. Nagy, David Mester, Laszlo Gyevi-Nagy,
        Jozsef Csoka, P. Bernat Szabo, Zoltan Rolik, Gyula Samu,
     Jozsef Csontos, Bence Hegely, Adam Ganyecz, Istvan Ladjanszki,
       Lorant Szegedy, Bence Ladoczki, Klara Petrov, Mate Farkas,
                    Pal D. Mezei, and Reka A. Horvath
 
        Department of Physical Chemistry and Materials Science
            Budapest University of Technology and Economics
                  Budapest P.O.Box 91, H-1521 Hungary
 
                              www.mrcc.hu
 
                     Release date: August 28, 2023

 ************************ 2026-02-26 21:29:23 *************************
 Executing minp...

 Reading input from MINP...
 
 Input file:
 
charge=0
mult=1
calc=LNO-CCSD(T)
basis=aug-cc-pVDZ
symm=off
verbosity=3
unit=angs
scfalg=locfit1
scfmaxit=200
scftol=8
basis_sm=def2-SVP
usedisk=0
aocd=extra
chtol=1d-6
iesttol=0.001
scfiguess=small
lcorthr=tight
mem=46GB
ghost=serialno
1-4,9-12

geom=xyz
12

N      1.04470516527    1.04467805385    1.04472620470
H      1.86198065727    1.39631551807    0.53263274880
H      1.39638040304    0.53260276511    1.86208371977
H      0.53256262530    1.86191282917    1.39633599251
N      3.60995473454    1.52057191074    4.08577558721
H      4.42722968319    1.16893531034    4.59786809656
H      3.96163147006    2.03264798552    3.26841604077
H      3.09781293566    0.70333789254    3.73416418411
N      4.08580437245    3.60992628524    6.65101993408
H      3.73412022664    3.09785482065    5.83367042895
H      4.59792989480    4.42715858900    6.29942160276
H      3.26851213636    3.96156461954    7.16312088514
 
 
 Checking keyword combinations...
 
 Keywords:
 
 active=none
 agrid=ld0006-ld0590
 agrid_pssp=ld0006-ld0194
 agrid_pssp_sm=ld0006-ld0074
 basis=aug-cc-pvdz
 basis_sm=def2-svp
 basopt=off
 bfbasis=none
 bfgsmem=10
 bfgstol=1.0d-3
 boysalg=jacobi
 bpcompo=0.985
 bpcompv=0.98
 bpdfo=0.985
 bpocc=0.99995d0
 bppdo=0.999d0
 bppdv=0.98
 bpedo=0.99995d0
 bpedv=0.995d0
 calc=ccsd(t)
 ccmaxit=50
 ccprog=ccsd
 ccsdalg=dfdirect
 ccsdmkl=seq
 ccsdrest=off
 ccsdthreads=2
 cctol=5
 charge=0
 cialg=direct
 ciguess=off
 cmpgrp=auto
 comprest=off
 coord_sys=ric
 core=frozen
 corembed=off
 csapprox=off
 cvs=off
 dboc=off
 delocsomofact=
 dendec=cholesky
 dens=0
 denscorr=0
 dfalg=lineq
 dfbasis_cab=none
 dfbasis_cor=auto
 dfbasis_scf=auto
 dfbasis_scf_sm=auto
 dfintran=drpa
 dft=off
 dhexc=adc(2)
 diag=david
 docc=
 domrad=10.d0
 drpaalg=auto
 dual=off
 dual_df=off
 ecp=auto
 edisp=off
 edisp_embed=off
 embed=off
 epairestfact=off
 epairscale=1.d0
 etemp=300
 epert=none
 eps=
 espcharge=off
 excrad=1.0
 excrad_fin=0.100000000D-02
 fitting=coulomb
 fmm=off
 fmmord=8
 fnonorb=
 freq=off
 gamma=1.d0
 gauss=spher
 geom=xyz
 gopt=off
 ghost=serialno
 gtol=7
 grdens=off
 grid=auto
 grid_sm=auto
 gridbatch_cos=2000
 grtol=10
 guido_ct=off
 hamilton=dc
 iface=none
 intalg=auto
 ip_ea=off
 itol=12
 laptol=1.d-3
 lccoporder=lccfirst
 lcorthr=tight
 lccrest=off
 ldfgrad_tol=8
 lmp2dens=on
 lnoepso=3e-6
 lnoepsv=3e-7
 localcc=2021
 localcorrsymm=off
 locintrf=direct
 mact=
 maxact=off
 maxdim=200
 maxex=0
 maxmicroit=100
 mcscfiguess=hf
 mem=46gb
 mmprog=
 molden=on
 mpitasks=1
 mulmet=3
 mult=1
 nab=off
 nacto=0
 nactv=0
 naf_amp=3.16d-3
 naf_cor=1e-2
 naf_f12=off
 naf_scf=off
 nafalg=albe
 nafdens=off
 naftyp=jpq
 nchol=auto
 ndeps=1e-3
 nstate=1
 nsing=0
 nto=off
 ntrip=0
 num_grad=off
 occ=
 occri=off
 oniom=off
 oniom_eechg=off
 oniom_pcm=off
 oniom_qcorr=off
 optalg=
 optmaxit=50
 optetol=1e-6
 optex=0
 optgtol=1e-4
 optstol=1e-3
 orblocc=off
 orbloce=off
 orbloco=boys
 orblocv=pao
 orblocguess=cholesky
 osveps=-1.d0
 ovirt=off
 ovltol=1e-7
 ovosnorb=80.0
 pao_subsys_tol=1e-3
 pcm=off
 popul=off
 pressure=100000
 pssp=off
 ptfreq=0.0
 ptthreads=2
 qmreg=
 qmmm=off
 qro=off
 qscf=off
 redcost_exc=off
 redcost_tddft=0.985d0
 refdet=none
 rest=0
 rgrid=log3
 rism=off
 rohfcore=standard
 rohftype=semicanonical
 scfalg=locfit1
 scf_conv=auto
 scfdamp=0.0d0
 scfdamp_mode=off
 scfdamp_end=200
 scfdamp_dampstep=0.d0
 scfdamp_dtol=0.0d0
 scfdamp_maxfact=0.0d0
 scfdamp_minfact=0.0d0
 scfdiis=on
 scfdiis_dtol=0.0d0
 scfdiis_end=200
 scfdiis_start=2
 scfdiis_step=1
 scfdiis_watch=off
 scfdiis_wrange=10
 scfdiis_wlimit=5
 scfdiis_delmax=2
 scfdtol=9
 scfext=10
 scfguessdens=
 scfiguess=small
 scfloc=pm
 scflshift=0.20
 scflshift_end=8
 scflshift_dtol=0.0
 scflshift_gaptol=0.20
 scfmaxit=200
 scftype=
 scftol=8
 scspe=1.d0
 scsph=1.d0
 scsps=1.2d0
 scsps_t=1.2d0
 scspt=0.33333333333333
 scspt_t=0.33333333333333
 scspv=1.d0
 spairtol=-1.d0
 sqmprog=
 subminp=top
 symm=0
 talg=lapl
 temp=298.15
 test=off
 theodore=off
 tlmo=0.999
 tpao=0.94
 tprint=off
 uncontract=off
 unit=angs
 usedisk=0
 verbosity=3
 wpairtol=3.d-6
 
 Calculating integrals for small-basis SCF...

 ************************ 2026-02-26 21:29:24 *************************
 Executing integ...

 Allocation of 46.0 Gbytes of memory...
 
 
 Number of atoms:                 12
 Charge:                           0
 Number of electrons:             10
 Number of core electrons:         2
 Spin multiplicity:                1
 
                 Cartesian coordinates [bohr]      Atomic mass [AMU]  Z
   1  N     1.97420664    1.97415541    1.97424640     0.000000       0
   2  H     3.51863349    2.63865391    1.00653002     0.000000       0
   3  H     2.63877653    1.00647336    3.51882825     0.000000       0
   4  H     1.00639751    3.51850532    2.63869260     0.000000       0
   5  N     6.82182577    2.87346447    7.72099687    14.003074       7
   6  H     8.36625160    2.20896759    8.68871146     1.007825       1
   7  H     7.48639849    3.84114800    6.17641118     1.007825       1
   8  H     5.85401804    1.32911599    7.05654762     1.007825       1
   9  N     7.72105127    6.82177201   12.56860613     0.000000       0
  10  H     7.05646455    5.85409719   11.02403942     0.000000       0
  11  H     8.68882825    8.36611725   11.90418158     0.000000       0
  12  H     6.17659278    7.48627216   13.53633668     0.000000       0
 
 This molecule is an asymmetric top.
 
 Point group: C1  
 Computational point group: C1  
 
 Cartesian coordinates in standard orientation [bohr]
   1  N    -7.08623513    1.85560807    0.12298286
   2  H    -6.91617799    1.34728633   -1.74141440
   3  H    -5.85782356    0.74523981    1.13386471
   4  H    -6.46292891    3.68617012    0.27690439
   5  N     0.16467529   -0.32338932    0.02511893
   6  H     1.44297127   -1.78235104   -0.00074302
   7  H    -0.44050779   -0.05954856   -1.79914935
   8  H    -1.36623802   -0.92115953    1.05571684
   9  N     5.89606148    2.32637611    0.18946599
  10  H     3.99373077    1.94646971    0.21324381
  11  H     6.34829290    2.87422824   -1.61563768
  12  H     6.18878049    3.85808950    1.34340904
 
 Nuclear repulsion energy [au]:         11.785794585729
 
Warning: for H atoms in the case of dfbasis_scf=auto the AO basis is set as dfbasis_scf instead of def2-qzvp(pd)-ri-jk because the AO basis is larger. Set the dfbasis_scf=def2-qzvp(pd)-ri-jk in MINP if that is desired.
 
 
 Basis set information:
 
 Maximum angular momentum: g
 Maximum number of contracted Gaussians:   10
 Maximum number of primitive Gaussians:    14
 Spherical harmonic GTOs are used.
 
 
 Conventional basis set:
 
   1  N  def2-svp [ 7s 4p 1d | 3s 2p 1d ]
   2  H  def2-svp [ 4s 1p | 2s 1p ]
   3  H  def2-svp [ 4s 1p | 2s 1p ]
   4  H  def2-svp [ 4s 1p | 2s 1p ]
   5  N  def2-svp [ 7s 4p 1d | 3s 2p 1d ]
   6  H  def2-svp [ 4s 1p | 2s 1p ]
   7  H  def2-svp [ 4s 1p | 2s 1p ]
   8  H  def2-svp [ 4s 1p | 2s 1p ]
   9  N  def2-svp [ 7s 4p 1d | 3s 2p 1d ]
  10  H  def2-svp [ 4s 1p | 2s 1p ]
  11  H  def2-svp [ 4s 1p | 2s 1p ]
  12  H  def2-svp [ 4s 1p | 2s 1p ]
 
 Basis functions:
            1             2             3             4             5             6             7             8             9            10
    0    1N1s          1N2s          1N3s          1N1pz         1N1py         1N1px         1N2pz         1N2py         1N2px         1N1d-2    
    1    1N1d-1        1N1d0         1N1d+1        1N1d+2        2H1s          2H2s          2H1pz         2H1py         2H1px         3H1s      
    2    3H2s          3H1pz         3H1py         3H1px         4H1s          4H2s          4H1pz         4H1py         4H1px         5N1s      
    3    5N2s          5N3s          5N1pz         5N1py         5N1px         5N2pz         5N2py         5N2px         5N1d-2        5N1d-1    
    4    5N1d0         5N1d+1        5N1d+2        6H1s          6H2s          6H1pz         6H1py         6H1px         7H1s          7H2s      
    5    7H1pz         7H1py         7H1px         8H1s          8H2s          8H1pz         8H1py         8H1px         9N1s          9N2s      
    6    9N3s          9N1pz         9N1py         9N1px         9N2pz         9N2py         9N2px         9N1d-2        9N1d-1        9N1d0     
    7    9N1d+1        9N1d+2       10H1s         10H2s         10H1pz        10H1py        10H1px        11H1s         11H2s         11H1pz     
    8   11H1py        11H1px        12H1s         12H2s         12H1pz        12H1py        12H1px     
 
 Maximum number of basis functions per shell:    6
 Total number of basis functions:     87
 
 
 Fitting basis set for the SCF calculation:
 
   1  N  def2-qzvpp-ri-jk [ 14s 10p 6d 2f 1g | 10s 8p 4d 2f 1g ]
   2  H  def2-qzvpp [ 7s 3p 2d 1f | 4s 3p 2d 1f ]
   3  H  def2-qzvpp [ 7s 3p 2d 1f | 4s 3p 2d 1f ]
   4  H  def2-qzvpp [ 7s 3p 2d 1f | 4s 3p 2d 1f ]
   5  N  def2-qzvpp-ri-jk [ 14s 10p 6d 2f 1g | 10s 8p 4d 2f 1g ]
   6  H  def2-qzvpp [ 7s 3p 2d 1f | 4s 3p 2d 1f ]
   7  H  def2-qzvpp [ 7s 3p 2d 1f | 4s 3p 2d 1f ]
   8  H  def2-qzvpp [ 7s 3p 2d 1f | 4s 3p 2d 1f ]
   9  N  def2-qzvpp-ri-jk [ 14s 10p 6d 2f 1g | 10s 8p 4d 2f 1g ]
  10  H  def2-qzvpp [ 7s 3p 2d 1f | 4s 3p 2d 1f ]
  11  H  def2-qzvpp [ 7s 3p 2d 1f | 4s 3p 2d 1f ]
  12  H  def2-qzvpp [ 7s 3p 2d 1f | 4s 3p 2d 1f ]
 
 Basis functions:
            1             2             3             4             5             6             7             8             9            10
    0    1N1s          1N2s          1N3s          1N4s          1N5s          1N6s          1N7s          1N8s          1N9s          1N10s     
    1    1N1pz         1N1py         1N1px         1N2pz         1N2py         1N2px         1N3pz         1N3py         1N3px         1N4pz     
    2    1N4py         1N4px         1N5pz         1N5py         1N5px         1N6pz         1N6py         1N6px         1N7pz         1N7py     
    3    1N7px         1N8pz         1N8py         1N8px         1N1d-2        1N1d-1        1N1d0         1N1d+1        1N1d+2        1N2d-2    
    4    1N2d-1        1N2d0         1N2d+1        1N2d+2        1N3d-2        1N3d-1        1N3d0         1N3d+1        1N3d+2        1N4d-2    
    5    1N4d-1        1N4d0         1N4d+1        1N4d+2        1N1f-3        1N1f-2        1N1f-1        1N1f0         1N1f+1        1N1f+2    
    6    1N1f+3        1N2f-3        1N2f-2        1N2f-1        1N2f0         1N2f+1        1N2f+2        1N2f+3        1N1g-4        1N1g-3    
    7    1N1g-2        1N1g-1        1N1g0         1N1g+1        1N1g+2        1N1g+3        1N1g+4        2H1s          2H2s          2H3s      
    8    2H4s          2H1pz         2H1py         2H1px         2H2pz         2H2py         2H2px         2H3pz         2H3py         2H3px     
    9    2H1d-2        2H1d-1        2H1d0         2H1d+1        2H1d+2        2H2d-2        2H2d-1        2H2d0         2H2d+1        2H2d+2    
   10    2H1f-3        2H1f-2        2H1f-1        2H1f0         2H1f+1        2H1f+2        2H1f+3        3H1s          3H2s          3H3s      
   11    3H4s          3H1pz         3H1py         3H1px         3H2pz         3H2py         3H2px         3H3pz         3H3py         3H3px     
   12    3H1d-2        3H1d-1        3H1d0         3H1d+1        3H1d+2        3H2d-2        3H2d-1        3H2d0         3H2d+1        3H2d+2    
   13    3H1f-3        3H1f-2        3H1f-1        3H1f0         3H1f+1        3H1f+2        3H1f+3        4H1s          4H2s          4H3s      
   14    4H4s          4H1pz         4H1py         4H1px         4H2pz         4H2py         4H2px         4H3pz         4H3py         4H3px     
   15    4H1d-2        4H1d-1        4H1d0         4H1d+1        4H1d+2        4H2d-2        4H2d-1        4H2d0         4H2d+1        4H2d+2    
   16    4H1f-3        4H1f-2        4H1f-1        4H1f0         4H1f+1        4H1f+2        4H1f+3        5N1s          5N2s          5N3s      
   17    5N4s          5N5s          5N6s          5N7s          5N8s          5N9s          5N10s         5N1pz         5N1py         5N1px     
   18    5N2pz         5N2py         5N2px         5N3pz         5N3py         5N3px         5N4pz         5N4py         5N4px         5N5pz     
   19    5N5py         5N5px         5N6pz         5N6py         5N6px         5N7pz         5N7py         5N7px         5N8pz         5N8py     
   20    5N8px         5N1d-2        5N1d-1        5N1d0         5N1d+1        5N1d+2        5N2d-2        5N2d-1        5N2d0         5N2d+1    
   21    5N2d+2        5N3d-2        5N3d-1        5N3d0         5N3d+1        5N3d+2        5N4d-2        5N4d-1        5N4d0         5N4d+1    
   22    5N4d+2        5N1f-3        5N1f-2        5N1f-1        5N1f0         5N1f+1        5N1f+2        5N1f+3        5N2f-3        5N2f-2    
   23    5N2f-1        5N2f0         5N2f+1        5N2f+2        5N2f+3        5N1g-4        5N1g-3        5N1g-2        5N1g-1        5N1g0     
   24    5N1g+1        5N1g+2        5N1g+3        5N1g+4        6H1s          6H2s          6H3s          6H4s          6H1pz         6H1py     
   25    6H1px         6H2pz         6H2py         6H2px         6H3pz         6H3py         6H3px         6H1d-2        6H1d-1        6H1d0     
   26    6H1d+1        6H1d+2        6H2d-2        6H2d-1        6H2d0         6H2d+1        6H2d+2        6H1f-3        6H1f-2        6H1f-1    
   27    6H1f0         6H1f+1        6H1f+2        6H1f+3        7H1s          7H2s          7H3s          7H4s          7H1pz         7H1py     
   28    7H1px         7H2pz         7H2py         7H2px         7H3pz         7H3py         7H3px         7H1d-2        7H1d-1        7H1d0     
   29    7H1d+1        7H1d+2        7H2d-2        7H2d-1        7H2d0         7H2d+1        7H2d+2        7H1f-3        7H1f-2        7H1f-1    
   30    7H1f0         7H1f+1        7H1f+2        7H1f+3        8H1s          8H2s          8H3s          8H4s          8H1pz         8H1py     
   31    8H1px         8H2pz         8H2py         8H2px         8H3pz         8H3py         8H3px         8H1d-2        8H1d-1        8H1d0     
   32    8H1d+1        8H1d+2        8H2d-2        8H2d-1        8H2d0         8H2d+1        8H2d+2        8H1f-3        8H1f-2        8H1f-1    
   33    8H1f0         8H1f+1        8H1f+2        8H1f+3        9N1s          9N2s          9N3s          9N4s          9N5s          9N6s      
   34    9N7s          9N8s          9N9s          9N10s         9N1pz         9N1py         9N1px         9N2pz         9N2py         9N2px     
   35    9N3pz         9N3py         9N3px         9N4pz         9N4py         9N4px         9N5pz         9N5py         9N5px         9N6pz     
   36    9N6py         9N6px         9N7pz         9N7py         9N7px         9N8pz         9N8py         9N8px         9N1d-2        9N1d-1    
   37    9N1d0         9N1d+1        9N1d+2        9N2d-2        9N2d-1        9N2d0         9N2d+1        9N2d+2        9N3d-2        9N3d-1    
   38    9N3d0         9N3d+1        9N3d+2        9N4d-2        9N4d-1        9N4d0         9N4d+1        9N4d+2        9N1f-3        9N1f-2    
   39    9N1f-1        9N1f0         9N1f+1        9N1f+2        9N1f+3        9N2f-3        9N2f-2        9N2f-1        9N2f0         9N2f+1    
   40    9N2f+2        9N2f+3        9N1g-4        9N1g-3        9N1g-2        9N1g-1        9N1g0         9N1g+1        9N1g+2        9N1g+3    
   41    9N1g+4       10H1s         10H2s         10H3s         10H4s         10H1pz        10H1py        10H1px        10H2pz        10H2py     
   42   10H2px        10H3pz        10H3py        10H3px        10H1d-2       10H1d-1       10H1d0        10H1d+1       10H1d+2       10H2d-2    
   43   10H2d-1       10H2d0        10H2d+1       10H2d+2       10H1f-3       10H1f-2       10H1f-1       10H1f0        10H1f+1       10H1f+2    
   44   10H1f+3       11H1s         11H2s         11H3s         11H4s         11H1pz        11H1py        11H1px        11H2pz        11H2py     
   45   11H2px        11H3pz        11H3py        11H3px        11H1d-2       11H1d-1       11H1d0        11H1d+1       11H1d+2       11H2d-2    
   46   11H2d-1       11H2d0        11H2d+1       11H2d+2       11H1f-3       11H1f-2       11H1f-1       11H1f0        11H1f+1       11H1f+2    
   47   11H1f+3       12H1s         12H2s         12H3s         12H4s         12H1pz        12H1py        12H1px        12H2pz        12H2py     
   48   12H2px        12H3pz        12H3py        12H3px        12H1d-2       12H1d-1       12H1d0        12H1d+1       12H1d+2       12H2d-2    
   49   12H2d-1       12H2d0        12H2d+1       12H2d+2       12H1f-3       12H1f-2       12H1f-1       12H1f0        12H1f+1       12H1f+2    
   50   12H1f+3    
 
 Maximum number of basis functions per shell:   24
 Total number of basis functions:    501
 
 
 Initializing the SAD routines for the initial guess...
 Checking the files required for the initial guess...
 Atomic density files have been found for the atoms with the following serial numbers:
  
 Atomic density files have not been found for the atoms with the following serial numbers:
  5 6 7 8
 Generating SCFDENSITIES.N.def2-svp.0
 Generating SCFDENSITIES.H.def2-svp.0
 CPU time [min]:     0.213                   Wall time [min]:     0.142
 
 Character table for point group C1:
 
          E  
    A     1
 
 Number of basis functions per irrep:
    A      87
 
 
 Calculation of overlap integrals...
 CPU time [min]:     0.217                   Wall time [min]:     0.142
 
 Calculation of the square root of the overlap matrix...
 Minimum eigenvalue of the overlap matrix: 0.236383E-01
 CPU time [min]:     0.235                   Wall time [min]:     0.142
 
 Calculation of kinetic energy integrals...
 CPU time [min]:     0.235                   Wall time [min]:     0.142
 Calculation of dipole moment integrals...
 CPU time [min]:     0.236                   Wall time [min]:     0.142
 Calculation of nuclear attraction integrals...
 CPU time [min]:     0.237                   Wall time [min]:     0.142
 
 Calculation of prescreening integrals...
 CPU time [min]:     0.256                   Wall time [min]:     0.143
 
 Calculation of two-center Coulomb integrals...
   1% done.
  13% done.
  24% done.
  35% done.
  47% done.
  60% done.
  72% done.
  86% done.
  97% done.
 100% done.
 CPU time [min]:     0.268                   Wall time [min]:     0.143
 
 Cholesky decomposition of the two-center matrix...
 Reciprocal of the condition number:  0.924405E-05
 CPU time [min]:     0.295                   Wall time [min]:     0.143
 
 
 Running small-basis SCF...

 ************************ 2026-02-26 21:29:32 *************************
 Executing scf...

 @scfsetup: integrals calculated directly
            mrcc/integ direct run
 @scfsetup: calculating on full matrices
            not using symmetry adapted basis
 @scfsetup: diis switched on
 @scfsetup: number of steps to extrapolate from  10
 @scfsetup: tolerance in energy deviation    0.100000E-07
            tolerance in density deviation    0.100000E-08
 @scfsetup: maximum number of iterations: 200
 @scfsetup: restricted closed shell hf calc
 @scfsetup: starting scf from superposition of atomic densities
 @scfsetup: occupation set:
            from initial orbitals
 @scfsetup: Parameter-set for SCF acceleration: normal
 @scfsetup: diis runs from iteration:   2
 @scfsetup: diis runs to iteration: 200
 @scfsetup: diis runs in every iteration
 @scfsetup: diiswatch is disabled                   
 @scfsetup: diis dtol criteria to switch on:      0.0000E+00
           (or the iteration number below is reached)
 @scfsetup: static damping scheme
            iteration step criteria to turn damping off: 3
 @scfsetup: dynamic level shifting
            tolarance in HOMO-LUMO gap:  0.200
            tolarance in density deviation:     0.0000E+00
            iteration step criteria to turn level shifting off: 8
 Allocation of 46.0 Gbytes of memory...
 ======================================================================
 ITERATION STEP   1
 CPU time [min]:     0.040                   Wall time [min]:     0.010
 

 SCF control                  : initial
 Damping factor/level shift   : 0.000/0.200
 DIIS [start/end/frequency]   :   2 /200 /  1

 Constructing Fock-matrix...
 
 Pipek-Mezey localization...
 Step  Convergence
   1   0.878794058456
   2   0.001908573815
   3   0.000006420144
   4   0.000000059628
   5   0.000000000675
 CPU time [min]:     0.065                   Wall time [min]:     0.010
 
 Constructing local fitting domains...
 Maximum number of atoms in fitting domains:    6
 Average number of atoms in fitting domains:    5.2
 
 First step of Coulomb + first step of exchange...
 Exchange contribution is evaluated for MOs 1 to 5.
   1% done.
  14% done.
  25% done.
  37% done.
  49% done.
  60% done.
  72% done.
  83% done.
 100% done.
 Fitting and assembly step of exchange...
 CPU time [min]:     0.152                   Wall time [min]:     0.011
 
 Second step of Coulomb...
   1% done.
  14% done.
  25% done.
  37% done.
  49% done.
  60% done.
  72% done.
  83% done.
 100% done.
 CPU time [min]:     0.177                   Wall time [min]:     0.012
 
 Gradient norm:      2.3664E+00
 RMS of [F,P]:                                         0.02513375044646
 RMS of difference density:                            0.00919977848347
 Gap [au]:  0.65417728
 ALPHA OCC:   5
 BETA  OCC:   5
 
 ***HARTREE-FOCK ENERGY IN STEP   1 IS        -55.8598437799365684 [AU]
 ======================================================================
 ITERATION STEP   2
 CPU time [min]:     0.191                   Wall time [min]:     0.012
 

 SCF control                  : diis
 Damping factor/level shift   : 0.000/0.000
 DIIS [start/end/frequency]   :   2 /200 /  1

 Constructing Fock-matrix...
 
 Pipek-Mezey localization...
 Step  Convergence
   1   0.000431424037
   2   0.000003519593
   3   0.000000032240
   4   0.000000000271
 CPU time [min]:     0.214                   Wall time [min]:     0.013
 
 Constructing local fitting domains...
 Maximum number of atoms in fitting domains:    6
 Average number of atoms in fitting domains:    5.2
 
 First step of Coulomb + first step of exchange...
 Exchange contribution is evaluated for MOs 1 to 5.
   1% done.
  14% done.
  25% done.
  37% done.
  49% done.
  60% done.
  72% done.
  83% done.
 100% done.
 Fitting and assembly step of exchange...
 CPU time [min]:     0.289                   Wall time [min]:     0.014
 
 Second step of Coulomb...
   1% done.
  14% done.
  25% done.
  37% done.
  49% done.
  60% done.
  72% done.
  83% done.
 100% done.
 CPU time [min]:     0.313                   Wall time [min]:     0.014
 
 Gradient norm:      2.1669E-01
 DIIS is running in this iteration step.
 RMS of [F,P]:                                         0.00536645906690
 RMS of difference density:                            0.00442595075899
 Gap [au]:  0.47634720
 ALPHA OCC:   5
 BETA  OCC:   5
 
 ***HARTREE-FOCK ENERGY IN STEP   2 IS        -56.1241368288526132 [AU]
 
 Step comparison  Energy Drift [au]  DIIS error drift  Gradient drift
        1            2.6429E-01         1.9767E-02       2.1497E+00
        2            5.6124E+01         1.0000E-09       2.1497E+00
 ======================================================================
 ITERATION STEP   3
 CPU time [min]:     0.329                   Wall time [min]:     0.014
 

 SCF control                  : diis
 Damping factor/level shift   : 0.000/0.000
 DIIS [start/end/frequency]   :   2 /200 /  1

 Constructing Fock-matrix...
 
 Pipek-Mezey localization...
 Step  Convergence
   1   0.010238079989
   2   0.009987766332
   3   0.000001025498
   4   0.000000000730
 CPU time [min]:     0.352                   Wall time [min]:     0.015
 
 Constructing local fitting domains...
 Local fitting domains are unchanged.
 
 First step of Coulomb + first step of exchange...
 Exchange contribution is evaluated for MOs 1 to 5.
   1% done.
  14% done.
  25% done.
  37% done.
  49% done.
  60% done.
  72% done.
  83% done.
 100% done.
 Fitting and assembly step of exchange...
 CPU time [min]:     0.425                   Wall time [min]:     0.016
 
 Second step of Coulomb...
   1% done.
  14% done.
  25% done.
  37% done.
  49% done.
  60% done.
  72% done.
  83% done.
 100% done.
 CPU time [min]:     0.449                   Wall time [min]:     0.016
 
 Gradient norm:      1.1272E-01
 DIIS is running in this iteration step.
 RMS of [F,P]:                                         0.00261846870829
 RMS of difference density:                            0.00130466807269
 Gap [au]:  0.53687054
 ALPHA OCC:   5
 BETA  OCC:   5
 
 ***HARTREE-FOCK ENERGY IN STEP   3 IS        -56.1439069551992418 [AU]
 
 Step comparison  Energy Drift [au]  DIIS error drift  Gradient drift
        2            1.9770E-02         2.7480E-03       1.0397E-01
 ======================================================================
 ITERATION STEP   4
 CPU time [min]:     0.464                   Wall time [min]:     0.017
 

 SCF control                  : diis
 Damping factor/level shift   : 0.000/0.000
 DIIS [start/end/frequency]   :   2 /200 /  1

 Constructing Fock-matrix...
 
 Pipek-Mezey localization...
 Step  Convergence
   1   0.019951586946
   2   0.019602328824
   3   0.000001434220
   4   0.000000000115
 CPU time [min]:     0.487                   Wall time [min]:     0.017
 
 Constructing local fitting domains...
 Local fitting domains are unchanged.
 
 First step of Coulomb + first step of exchange...
 Exchange contribution is evaluated for MOs 1 to 5.
   1% done.
  14% done.
  25% done.
  37% done.
  49% done.
  60% done.
  72% done.
  83% done.
 100% done.
 Fitting and assembly step of exchange...
 CPU time [min]:     0.560                   Wall time [min]:     0.018
 
 Second step of Coulomb...
   1% done.
  14% done.
  25% done.
  37% done.
  49% done.
  60% done.
  72% done.
  83% done.
 100% done.
 CPU time [min]:     0.584                   Wall time [min]:     0.019
 
 Gradient norm:      1.6063E-02
 DIIS is running in this iteration step.
 RMS of [F,P]:                                         0.00033164166989
 RMS of difference density:                            0.00041573990750
 Gap [au]:  0.52880124
 ALPHA OCC:   5
 BETA  OCC:   5
 
 ***HARTREE-FOCK ENERGY IN STEP   4 IS        -56.1494280606224265 [AU]
 
 Step comparison  Energy Drift [au]  DIIS error drift  Gradient drift
        3            5.5211E-03         2.2868E-03       9.6658E-02
 ======================================================================
 ITERATION STEP   5
 CPU time [min]:     0.599                   Wall time [min]:     0.019
 

 SCF control                  : diis
 Damping factor/level shift   : 0.000/0.000
 DIIS [start/end/frequency]   :   2 /200 /  1

 Constructing Fock-matrix...
 
 Pipek-Mezey localization...
 Step  Convergence
   1   0.029946660973
   2   0.029845356890
   3   0.000070601002
   4   0.000000403250
   5   0.000000000771
 CPU time [min]:     0.622                   Wall time [min]:     0.019
 
 Constructing local fitting domains...
 Local fitting domains are unchanged.
 
 First step of Coulomb + first step of exchange...
 Exchange contribution is evaluated for MOs 1 to 5.
   1% done.
  14% done.
  25% done.
  37% done.
  49% done.
  60% done.
  72% done.
  83% done.
 100% done.
 Fitting and assembly step of exchange...
 CPU time [min]:     0.694                   Wall time [min]:     0.020
 
 Second step of Coulomb...
   1% done.
  14% done.
  25% done.
  37% done.
  49% done.
  60% done.
  72% done.
  83% done.
 100% done.
 CPU time [min]:     0.718                   Wall time [min]:     0.021
 
 Gradient norm:      2.2072E-03
 DIIS is running in this iteration step.
 RMS of [F,P]:                                         0.00006443946840
 RMS of difference density:                            0.00007934640674
 Gap [au]:  0.52897913
 ALPHA OCC:   5
 BETA  OCC:   5
 
 ***HARTREE-FOCK ENERGY IN STEP   5 IS        -56.1496337960469347 [AU]
 
 Step comparison  Energy Drift [au]  DIIS error drift  Gradient drift
        4            2.0574E-04         2.6720E-04       1.3856E-02
 ======================================================================
 ITERATION STEP   6
 CPU time [min]:     0.733                   Wall time [min]:     0.021
 

 SCF control                  : diis
 Damping factor/level shift   : 0.000/0.000
 DIIS [start/end/frequency]   :   2 /200 /  1

 Constructing Fock-matrix...
 
 Pipek-Mezey localization...
 Step  Convergence
   1   0.040143368897
   2   0.039815227685
   3   0.000042760538
   4   0.000000182601
   5   0.000000000469
 CPU time [min]:     0.756                   Wall time [min]:     0.022
 
 Constructing local fitting domains...
 Local fitting domains are unchanged.
 
 First step of Coulomb + first step of exchange...
 Exchange contribution is evaluated for MOs 1 to 5.
   1% done.
  14% done.
  25% done.
  37% done.
  49% done.
  60% done.
  72% done.
  83% done.
 100% done.
 Fitting and assembly step of exchange...
 CPU time [min]:     0.829                   Wall time [min]:     0.023
 
 Second step of Coulomb...
   1% done.
  14% done.
  25% done.
  37% done.
  49% done.
  60% done.
  72% done.
  83% done.
 100% done.
 CPU time [min]:     0.853                   Wall time [min]:     0.023
 
 Gradient norm:      4.2011E-04
 DIIS is running in this iteration step.
 RMS of [F,P]:                                         0.00000958014753
 RMS of difference density:                            0.00001510530171
 Gap [au]:  0.52896534
 ALPHA OCC:   5
 BETA  OCC:   5
 
 ***HARTREE-FOCK ENERGY IN STEP   6 IS        -56.1496405035398638 [AU]
 
 Step comparison  Energy Drift [au]  DIIS error drift  Gradient drift
        5            6.7075E-06         5.4859E-05       1.7871E-03
 ======================================================================
 ITERATION STEP   7
 CPU time [min]:     0.868                   Wall time [min]:     0.023
 

 SCF control                  : diis
 Damping factor/level shift   : 0.000/0.000
 DIIS [start/end/frequency]   :   2 /200 /  1

 Constructing Fock-matrix...
 
 Pipek-Mezey localization...
 Step  Convergence
   1   0.049883259885
   2   0.049174267195
   3   0.000018437593
   4   0.000000005955
   5   0.000000000035
   6   0.000000000000
 CPU time [min]:     0.892                   Wall time [min]:     0.024
 
 Constructing local fitting domains...
 Local fitting domains are unchanged.
 
 First step of Coulomb + first step of exchange...
 Exchange contribution is evaluated for MOs 1 to 5.
   1% done.
  14% done.
  25% done.
  37% done.
  49% done.
  60% done.
  72% done.
  83% done.
 100% done.
 Fitting and assembly step of exchange...
 CPU time [min]:     0.965                   Wall time [min]:     0.025
 
 Second step of Coulomb...
   1% done.
  14% done.
  25% done.
  37% done.
  49% done.
  60% done.
  72% done.
  83% done.
 100% done.
 CPU time [min]:     0.989                   Wall time [min]:     0.025
 
 Gradient norm:      1.0687E-04
 DIIS is running in this iteration step.
 RMS of [F,P]:                                         0.00000220734365
 RMS of difference density:                            0.00000422550472
 Gap [au]:  0.52892649
 ALPHA OCC:   5
 BETA  OCC:   5
 
 ***HARTREE-FOCK ENERGY IN STEP   7 IS        -56.1496407281638596 [AU]
 
 Step comparison  Energy Drift [au]  DIIS error drift  Gradient drift
        6            2.2462E-07         7.3728E-06       3.1324E-04
 ======================================================================
 ITERATION STEP   8
 CPU time [min]:     1.004                   Wall time [min]:     0.026
 

 SCF control                  : diis
 Damping factor/level shift   : 0.000/0.000
 DIIS [start/end/frequency]   :   2 /200 /  1

 Constructing Fock-matrix...
 
 Pipek-Mezey localization...
 Step  Convergence
   1   0.049882072066
   2   0.051377628217
   3   0.000022835396
   4   0.000000008218
   5   0.000000000036
   6   0.000000000000
 CPU time [min]:     1.028                   Wall time [min]:     0.026
 
 Constructing local fitting domains...
 Local fitting domains are unchanged.
 
 First step of Coulomb + first step of exchange...
 Exchange contribution is evaluated for MOs 1 to 5.
   1% done.
  14% done.
  25% done.
  37% done.
  49% done.
  60% done.
  72% done.
  83% done.
 100% done.
 Fitting and assembly step of exchange...
 CPU time [min]:     1.100                   Wall time [min]:     0.027
 
 Second step of Coulomb...
   1% done.
  14% done.
  25% done.
  37% done.
  49% done.
  60% done.
  72% done.
  83% done.
 100% done.
 CPU time [min]:     1.125                   Wall time [min]:     0.028
 
 Gradient norm:      1.2318E-05
 DIIS is running in this iteration step.
 RMS of [F,P]:                                         0.00000024892318
 RMS of difference density:                            0.00000043081266
 Gap [au]:  0.52892015
 ALPHA OCC:   5
 BETA  OCC:   5
 
 ***HARTREE-FOCK ENERGY IN STEP   8 IS        -56.1496407418008374 [AU]
 
 Step comparison  Energy Drift [au]  DIIS error drift  Gradient drift
        7            1.3637E-08         1.9584E-06       9.4554E-05
 ======================================================================
 ITERATION STEP   9
 CPU time [min]:     1.140                   Wall time [min]:     0.028
 

 SCF control                  : diis
 Damping factor/level shift   : 0.000/0.000
 DIIS [start/end/frequency]   :   2 /200 /  1

 Constructing Fock-matrix...
 
 Pipek-Mezey localization...
 Step  Convergence
   1   0.040021235485
   2   0.040118513444
   3   0.000073547588
   4   0.000000402695
   5   0.000000000814
   6   0.000000000004
   7   0.000000000000
 CPU time [min]:     1.163                   Wall time [min]:     0.028
 
 Constructing local fitting domains...
 Local fitting domains are unchanged.
 
 First step of Coulomb + first step of exchange...
 Exchange contribution is evaluated for MOs 1 to 5.
   1% done.
  14% done.
  25% done.
  37% done.
  49% done.
  60% done.
  72% done.
  83% done.
 100% done.
 Fitting and assembly step of exchange...
 CPU time [min]:     1.235                   Wall time [min]:     0.029
 
 Second step of Coulomb...
   1% done.
  14% done.
  25% done.
  37% done.
  49% done.
  60% done.
  72% done.
  83% done.
 100% done.
 CPU time [min]:     1.260                   Wall time [min]:     0.030
 
 Gradient norm:      3.3594E-06
 DIIS is running in this iteration step.
 RMS of [F,P]:                                         0.00000004908680
 RMS of difference density:                            0.00000013069693
 Gap [au]:  0.52891978
 ALPHA OCC:   5
 BETA  OCC:   5
 
 ***HARTREE-FOCK ENERGY IN STEP   9 IS        -56.1496407419695558 [AU]
 
 Step comparison  Energy Drift [au]  DIIS error drift  Gradient drift
        8            1.6872E-10         1.9984E-07       8.9581E-06
 ======================================================================
 ITERATION STEP  10
 CPU time [min]:     1.276                   Wall time [min]:     0.030
 

 SCF control                  : diis
 Damping factor/level shift   : 0.000/0.000
 DIIS [start/end/frequency]   :   2 /200 /  1

 Constructing Fock-matrix...
 
 Pipek-Mezey localization...
 Step  Convergence
   1   0.044241252775
   2   0.042847380039
   3   0.000026008505
   4   0.000000098081
   5   0.000000000232
   6   0.000000000000
 CPU time [min]:     1.299                   Wall time [min]:     0.031
 
 Constructing local fitting domains...
 Local fitting domains are unchanged.
 
 First step of Coulomb + first step of exchange...
 Exchange contribution is evaluated for MOs 1 to 5.
   1% done.
  14% done.
  25% done.
  37% done.
  49% done.
  60% done.
  72% done.
  83% done.
 100% done.
 Fitting and assembly step of exchange...
 CPU time [min]:     1.372                   Wall time [min]:     0.032
 
 Second step of Coulomb...
   1% done.
  14% done.
  25% done.
  37% done.
  49% done.
  60% done.
  72% done.
  83% done.
 100% done.
 CPU time [min]:     1.396                   Wall time [min]:     0.032
 
 Gradient norm:      8.4140E-07
 DIIS is running in this iteration step.
 RMS of [F,P]:                                         0.00000001277907
 RMS of difference density:                            0.00000004004332
 Gap [au]:  0.52891979
 ALPHA OCC:   5
 BETA  OCC:   5
 
 ***HARTREE-FOCK ENERGY IN STEP  10 IS        -56.1496407419802352 [AU]
 
 Step comparison  Energy Drift [au]  DIIS error drift  Gradient drift
        9            1.0679E-11         3.6308E-08       2.5180E-06
 ======================================================================
 ITERATION STEP  11
 CPU time [min]:     1.411                   Wall time [min]:     0.032
 

 SCF control                  : diis
 Damping factor/level shift   : 0.000/0.000
 DIIS [start/end/frequency]   :   2 /200 /  1

 Constructing Fock-matrix...
 
 Pipek-Mezey localization...
 Step  Convergence
   1   0.044381596887
   2   0.043025037092
   3   0.000014770430
   4   0.000000004544
   5   0.000000000003
   6   0.000000000000
 CPU time [min]:     1.434                   Wall time [min]:     0.033
 
 Constructing local fitting domains...
 Local fitting domains are unchanged.
 
 First step of Coulomb + first step of exchange...
 Exchange contribution is evaluated for MOs 1 to 5.
   1% done.
  14% done.
  25% done.
  37% done.
  49% done.
  60% done.
  72% done.
  83% done.
 100% done.
 Fitting and assembly step of exchange...
 CPU time [min]:     1.506                   Wall time [min]:     0.034
 
 Second step of Coulomb...
   1% done.
  14% done.
  25% done.
  37% done.
  49% done.
  60% done.
  72% done.
  83% done.
 100% done.
 CPU time [min]:     1.531                   Wall time [min]:     0.034
 
 Gradient norm:      8.8077E-08
 DIIS is running in this iteration step.
 RMS of [F,P]:                                         0.00000000134192
 RMS of difference density:                            0.00000000279461
 Gap [au]:  0.52891981
 ALPHA OCC:   5
 BETA  OCC:   5
 
 ***HARTREE-FOCK ENERGY IN STEP  11 IS        -56.1496407419809174 [AU]
 
 Step comparison  Energy Drift [au]  DIIS error drift  Gradient drift
       10            6.8212E-13         1.1437E-08       7.5332E-07
 ======================================================================
 ITERATION STEP  12
 CPU time [min]:     1.546                   Wall time [min]:     0.035
 

 SCF control                  : diis
 Damping factor/level shift   : 0.000/0.000
 DIIS [start/end/frequency]   :   2 /200 /  1

 Constructing Fock-matrix...
 
 Pipek-Mezey localization...
 Step  Convergence
   1   0.044120486086
   2   0.042832482758
   3   0.000042132565
   4   0.000000152462
   5   0.000000000338
   6   0.000000000001
 CPU time [min]:     1.569                   Wall time [min]:     0.035
 
 Constructing local fitting domains...
 Local fitting domains are unchanged.
 
 First step of Coulomb + first step of exchange...
 Exchange contribution is evaluated for MOs 1 to 5.
   1% done.
  14% done.
  25% done.
  37% done.
  49% done.
  60% done.
  72% done.
  83% done.
 100% done.
 Fitting and assembly step of exchange...
 CPU time [min]:     1.641                   Wall time [min]:     0.036
 
 Second step of Coulomb...
   1% done.
  14% done.
  25% done.
  37% done.
  49% done.
  60% done.
  72% done.
  83% done.
 100% done.
 CPU time [min]:     1.666                   Wall time [min]:     0.037
 
 Gradient norm:      5.1816E-09
 DIIS is running in this iteration step.
 RMS of [F,P]:                                         0.00000000014646
 RMS of difference density:                            0.00000000021315
 Gap [au]:  0.52891981
 ALPHA OCC:   5
 BETA  OCC:   5
 
 ***HARTREE-FOCK ENERGY IN STEP  12 IS        -56.1496407419809174 [AU]
 
 Step comparison  Energy Drift [au]  DIIS error drift  Gradient drift
       11            0.0000E+00         1.1955E-09       8.2895E-08
 Warning! The energy goes uphill (with respect to previous step).
 
 The SCF iteration has converged.
 An extra iteration will be performed to calculate accurate SCF energy.
 
 ======================================================================
 ITERATION STEP  13
 CPU time [min]:     1.682                   Wall time [min]:     0.037
 

 SCF control                  : diis
 Damping factor/level shift   : 0.000/0.000
 DIIS [start/end/frequency]   :   2 /200 /  1

 Constructing Fock-matrix...
 
 Pipek-Mezey localization...
 Step  Convergence
   1   0.044241229696
   2   0.043003933480
   3   0.000014423334
   4   0.000000004494
   5   0.000000000003
   6   0.000000000000
 CPU time [min]:     1.705                   Wall time [min]:     0.037
 
 Constructing local fitting domains...
 Maximum number of atoms in fitting domains:   12
 Average number of atoms in fitting domains:   12.0
 
 First step of Coulomb + first step of exchange...
 Exchange contribution is evaluated for MOs 1 to 5.
   1% done.
  14% done.
  25% done.
  37% done.
  49% done.
  60% done.
  72% done.
  83% done.
 100% done.
 Fitting and assembly step of exchange...
 CPU time [min]:     1.792                   Wall time [min]:     0.039
 
 Second step of Coulomb...
   1% done.
  14% done.
  25% done.
  37% done.
  49% done.
  60% done.
  72% done.
  83% done.
 100% done.
 CPU time [min]:     1.817                   Wall time [min]:     0.039
 
 Gradient norm:      3.7068E-06
 RMS of [F,P]:                                         0.00000008400132
 RMS of difference density:                            0.00000021962033
 Gap [au]:  0.52891260
 ALPHA OCC:   5
 BETA  OCC:   5
 
 ***HARTREE-FOCK ENERGY IN STEP  13 IS        -56.1496411734954677 [AU]
 
 Step comparison  Energy Drift [au]  DIIS error drift  Gradient drift
       12            4.3151E-07        -8.3855E-08      -3.7017E-06
 Warning! The DIIS error goes uphill (with respect to previous step).
 Warning! The DIIS error goes uphill (with respect to step  12 ).
 Warning! The gradient goes uphill (with respect to previous step).
 Warning! The gradient goes uphill (with respect to step  12 ).
 ======================================================================
 
 SUCCESS...
 THE SCF ITERATION HAS CONVERGED!
 
                   A   
 FINAL ALPHA OCC:   5
 FINAL BETA  OCC:   5
 
 ***FINAL HARTREE-FOCK ENERGY:        -56.1496411734954677 [AU]
 
 Orbital energies [au]:
      Irrep         Alpha          Beta
    1   A        -15.544231     -15.544231
    2   A         -1.115038      -1.115038
    3   A         -0.619105      -0.619105
    4   A         -0.618792      -0.618792
    5   A         -0.420909      -0.420909
 
    6   A          0.108003       0.108003
    7   A          0.137574       0.137574
    8   A          0.190320       0.190320
    9   A          0.226142       0.226142
   10   A          0.244517       0.244517
   11   A          0.258435       0.258435
   12   A          0.275357       0.275357
   13   A          0.323619       0.323619
   14   A          0.328466       0.328466
   15   A          0.459312       0.459312
   16   A          0.470555       0.470555
   17   A          0.588661       0.588661
   18   A          0.618026       0.618026
   19   A          0.711668       0.711668
   20   A          0.716560       0.716560
   21   A          0.724991       0.724991
   22   A          0.741781       0.741781
   23   A          0.785247       0.785247
   24   A          0.797842       0.797842
   25   A          0.892514       0.892514
   26   A          1.074417       1.074417
   27   A          1.099107       1.099107
   28   A          1.144656       1.144656
   29   A          1.196291       1.196291
   30   A          1.456659       1.456659
   31   A          1.479362       1.479362
   32   A          1.572539       1.572539
   33   A          1.574826       1.574826
   34   A          1.592020       1.592020
   35   A          1.605226       1.605226
   36   A          1.611795       1.611795
   37   A          1.654996       1.654996
   38   A          1.763655       1.763655
   39   A          1.804676       1.804676
   40   A          1.868860       1.868860
   41   A          1.961075       1.961075
   42   A          1.966381       1.966381
   43   A          1.975943       1.975943
   44   A          1.981752       1.981752
   45   A          1.991072       1.991072
   46   A          2.074317       2.074317
   47   A          2.114578       2.114578
   48   A          2.269641       2.269641
   49   A          2.302667       2.302667
   50   A          2.411133       2.411133
   51   A          2.424517       2.424517
   52   A          2.445448       2.445448
   53   A          2.464517       2.464517
   54   A          2.472108       2.472108
   55   A          2.473896       2.473896
   56   A          2.483077       2.483077
   57   A          2.485010       2.485010
   58   A          2.495522       2.495522
   59   A          2.507276       2.507276
   60   A          2.528621       2.528621
   61   A          2.532452       2.532452
   62   A          2.764405       2.764405
   63   A          3.030918       3.030918
   64   A          3.065520       3.065520
   65   A          3.153834       3.153834
   66   A          3.158626       3.158626
   67   A          3.265797       3.265797
   68   A          3.694987       3.694987
   69   A          3.716851       3.716851
   70   A          4.010976       4.010976
   71   A          4.030892       4.030892
   72   A          4.040154       4.040154
   73   A          4.045986       4.045986
   74   A          4.051340       4.051340
   75   A          4.077183       4.077183
   76   A          4.151217       4.151217
   77   A          4.151777       4.151777
   78   A          4.174066       4.174066
   79   A          4.186134       4.186134
   80   A          4.891419       4.891419
   81   A          4.910616       4.910616
   82   A          6.043564       6.043564
   83   A          6.044686       6.044686
   84   A          6.062559       6.062559
   85   A          6.074619       6.074619
   86   A         26.598164      26.598164
   87   A         26.629191      26.629191
 
 RETURNING FROM SCF ALGORITHM
 ======================================================================

 ************************ 2026-02-26 21:29:35 *************************
 Executing integ...

 Allocation of 46.0 Gbytes of memory...
 
 
 Number of atoms:                 12
 Charge:                           0
 Number of electrons:             10
 Number of core electrons:         2
 Spin multiplicity:                1
 
                 Cartesian coordinates [bohr]      Atomic mass [AMU]  Z
   1  N     1.97420664    1.97415541    1.97424640     0.000000       0
   2  H     3.51863349    2.63865391    1.00653002     0.000000       0
   3  H     2.63877653    1.00647336    3.51882825     0.000000       0
   4  H     1.00639751    3.51850532    2.63869260     0.000000       0
   5  N     6.82182577    2.87346447    7.72099687    14.003074       7
   6  H     8.36625160    2.20896759    8.68871146     1.007825       1
   7  H     7.48639849    3.84114800    6.17641118     1.007825       1
   8  H     5.85401804    1.32911599    7.05654762     1.007825       1
   9  N     7.72105127    6.82177201   12.56860613     0.000000       0
  10  H     7.05646455    5.85409719   11.02403942     0.000000       0
  11  H     8.68882825    8.36611725   11.90418158     0.000000       0
  12  H     6.17659278    7.48627216   13.53633668     0.000000       0
 
 This molecule is an asymmetric top.
 
 Point group: C1  
 Computational point group: C1  
 
 Cartesian coordinates in standard orientation [bohr]
   1  N    -7.08623513    1.85560807    0.12298286
   2  H    -6.91617799    1.34728633   -1.74141440
   3  H    -5.85782356    0.74523981    1.13386471
   4  H    -6.46292891    3.68617012    0.27690439
   5  N     0.16467529   -0.32338932    0.02511893
   6  H     1.44297127   -1.78235104   -0.00074302
   7  H    -0.44050779   -0.05954856   -1.79914935
   8  H    -1.36623802   -0.92115953    1.05571684
   9  N     5.89606148    2.32637611    0.18946599
  10  H     3.99373077    1.94646971    0.21324381
  11  H     6.34829290    2.87422824   -1.61563768
  12  H     6.18878049    3.85808950    1.34340904
 
 Nuclear repulsion energy [au]:         11.785794585729
 
 
 Basis set information:
 
 Maximum angular momentum: g
 Maximum number of contracted Gaussians:   11
 Maximum number of primitive Gaussians:    14
 Spherical harmonic GTOs are used.
 
 
 Conventional basis set:
 
   1  N  aug-cc-pvdz [ 10s 5p 2d | 4s 3p 2d ]
   2  H  aug-cc-pvdz [ 5s 2p | 3s 2p ]
   3  H  aug-cc-pvdz [ 5s 2p | 3s 2p ]
   4  H  aug-cc-pvdz [ 5s 2p | 3s 2p ]
   5  N  aug-cc-pvdz [ 10s 5p 2d | 4s 3p 2d ]
   6  H  aug-cc-pvdz [ 5s 2p | 3s 2p ]
   7  H  aug-cc-pvdz [ 5s 2p | 3s 2p ]
   8  H  aug-cc-pvdz [ 5s 2p | 3s 2p ]
   9  N  aug-cc-pvdz [ 10s 5p 2d | 4s 3p 2d ]
  10  H  aug-cc-pvdz [ 5s 2p | 3s 2p ]
  11  H  aug-cc-pvdz [ 5s 2p | 3s 2p ]
  12  H  aug-cc-pvdz [ 5s 2p | 3s 2p ]
 
 Basis functions:
            1             2             3             4             5             6             7             8             9            10
    0    1N1s          1N2s          1N3s          1N4s          1N1pz         1N1py         1N1px         1N2pz         1N2py         1N2px     
    1    1N3pz         1N3py         1N3px         1N1d-2        1N1d-1        1N1d0         1N1d+1        1N1d+2        1N2d-2        1N2d-1    
    2    1N2d0         1N2d+1        1N2d+2        2H1s          2H2s          2H3s          2H1pz         2H1py         2H1px         2H2pz     
    3    2H2py         2H2px         3H1s          3H2s          3H3s          3H1pz         3H1py         3H1px         3H2pz         3H2py     
    4    3H2px         4H1s          4H2s          4H3s          4H1pz         4H1py         4H1px         4H2pz         4H2py         4H2px     
    5    5N1s          5N2s          5N3s          5N4s          5N1pz         5N1py         5N1px         5N2pz         5N2py         5N2px     
    6    5N3pz         5N3py         5N3px         5N1d-2        5N1d-1        5N1d0         5N1d+1        5N1d+2        5N2d-2        5N2d-1    
    7    5N2d0         5N2d+1        5N2d+2        6H1s          6H2s          6H3s          6H1pz         6H1py         6H1px         6H2pz     
    8    6H2py         6H2px         7H1s          7H2s          7H3s          7H1pz         7H1py         7H1px         7H2pz         7H2py     
    9    7H2px         8H1s          8H2s          8H3s          8H1pz         8H1py         8H1px         8H2pz         8H2py         8H2px     
   10    9N1s          9N2s          9N3s          9N4s          9N1pz         9N1py         9N1px         9N2pz         9N2py         9N2px     
   11    9N3pz         9N3py         9N3px         9N1d-2        9N1d-1        9N1d0         9N1d+1        9N1d+2        9N2d-2        9N2d-1    
   12    9N2d0         9N2d+1        9N2d+2       10H1s         10H2s         10H3s         10H1pz        10H1py        10H1px        10H2pz     
   13   10H2py        10H2px        11H1s         11H2s         11H3s         11H1pz        11H1py        11H1px        11H2pz        11H2py     
   14   11H2px        12H1s         12H2s         12H3s         12H1pz        12H1py        12H1px        12H2pz        12H2py        12H2px     
 
 Maximum number of basis functions per shell:   10
 Total number of basis functions:    150
 
 
 Fitting basis set for the SCF calculation:
 
   1  N  aug-cc-pvdz-ri-jk [ 11s 8p 6d 3f | 11s 8p 6d 3f ]
   2  H  aug-cc-pvdz-ri-jk [ 5s 4p 3d | 5s 4p 3d ]
   3  H  aug-cc-pvdz-ri-jk [ 5s 4p 3d | 5s 4p 3d ]
   4  H  aug-cc-pvdz-ri-jk [ 5s 4p 3d | 5s 4p 3d ]
   5  N  aug-cc-pvdz-ri-jk [ 11s 8p 6d 3f | 11s 8p 6d 3f ]
   6  H  aug-cc-pvdz-ri-jk [ 5s 4p 3d | 5s 4p 3d ]
   7  H  aug-cc-pvdz-ri-jk [ 5s 4p 3d | 5s 4p 3d ]
   8  H  aug-cc-pvdz-ri-jk [ 5s 4p 3d | 5s 4p 3d ]
   9  N  aug-cc-pvdz-ri-jk [ 11s 8p 6d 3f | 11s 8p 6d 3f ]
  10  H  aug-cc-pvdz-ri-jk [ 5s 4p 3d | 5s 4p 3d ]
  11  H  aug-cc-pvdz-ri-jk [ 5s 4p 3d | 5s 4p 3d ]
  12  H  aug-cc-pvdz-ri-jk [ 5s 4p 3d | 5s 4p 3d ]
 
 Basis functions:
            1             2             3             4             5             6             7             8             9            10
    0    1N1s          1N2s          1N3s          1N4s          1N5s          1N6s          1N7s          1N8s          1N9s          1N10s     
    1    1N11s         1N1pz         1N1py         1N1px         1N2pz         1N2py         1N2px         1N3pz         1N3py         1N3px     
    2    1N4pz         1N4py         1N4px         1N5pz         1N5py         1N5px         1N6pz         1N6py         1N6px         1N7pz     
    3    1N7py         1N7px         1N8pz         1N8py         1N8px         1N1d-2        1N1d-1        1N1d0         1N1d+1        1N1d+2    
    4    1N2d-2        1N2d-1        1N2d0         1N2d+1        1N2d+2        1N3d-2        1N3d-1        1N3d0         1N3d+1        1N3d+2    
    5    1N4d-2        1N4d-1        1N4d0         1N4d+1        1N4d+2        1N5d-2        1N5d-1        1N5d0         1N5d+1        1N5d+2    
    6    1N6d-2        1N6d-1        1N6d0         1N6d+1        1N6d+2        1N1f-3        1N1f-2        1N1f-1        1N1f0         1N1f+1    
    7    1N1f+2        1N1f+3        1N2f-3        1N2f-2        1N2f-1        1N2f0         1N2f+1        1N2f+2        1N2f+3        1N3f-3    
    8    1N3f-2        1N3f-1        1N3f0         1N3f+1        1N3f+2        1N3f+3        2H1s          2H2s          2H3s          2H4s      
    9    2H5s          2H1pz         2H1py         2H1px         2H2pz         2H2py         2H2px         2H3pz         2H3py         2H3px     
   10    2H4pz         2H4py         2H4px         2H1d-2        2H1d-1        2H1d0         2H1d+1        2H1d+2        2H2d-2        2H2d-1    
   11    2H2d0         2H2d+1        2H2d+2        2H3d-2        2H3d-1        2H3d0         2H3d+1        2H3d+2        3H1s          3H2s      
   12    3H3s          3H4s          3H5s          3H1pz         3H1py         3H1px         3H2pz         3H2py         3H2px         3H3pz     
   13    3H3py         3H3px         3H4pz         3H4py         3H4px         3H1d-2        3H1d-1        3H1d0         3H1d+1        3H1d+2    
   14    3H2d-2        3H2d-1        3H2d0         3H2d+1        3H2d+2        3H3d-2        3H3d-1        3H3d0         3H3d+1        3H3d+2    
   15    4H1s          4H2s          4H3s          4H4s          4H5s          4H1pz         4H1py         4H1px         4H2pz         4H2py     
   16    4H2px         4H3pz         4H3py         4H3px         4H4pz         4H4py         4H4px         4H1d-2        4H1d-1        4H1d0     
   17    4H1d+1        4H1d+2        4H2d-2        4H2d-1        4H2d0         4H2d+1        4H2d+2        4H3d-2        4H3d-1        4H3d0     
   18    4H3d+1        4H3d+2        5N1s          5N2s          5N3s          5N4s          5N5s          5N6s          5N7s          5N8s      
   19    5N9s          5N10s         5N11s         5N1pz         5N1py         5N1px         5N2pz         5N2py         5N2px         5N3pz     
   20    5N3py         5N3px         5N4pz         5N4py         5N4px         5N5pz         5N5py         5N5px         5N6pz         5N6py     
   21    5N6px         5N7pz         5N7py         5N7px         5N8pz         5N8py         5N8px         5N1d-2        5N1d-1        5N1d0     
   22    5N1d+1        5N1d+2        5N2d-2        5N2d-1        5N2d0         5N2d+1        5N2d+2        5N3d-2        5N3d-1        5N3d0     
   23    5N3d+1        5N3d+2        5N4d-2        5N4d-1        5N4d0         5N4d+1        5N4d+2        5N5d-2        5N5d-1        5N5d0     
   24    5N5d+1        5N5d+2        5N6d-2        5N6d-1        5N6d0         5N6d+1        5N6d+2        5N1f-3        5N1f-2        5N1f-1    
   25    5N1f0         5N1f+1        5N1f+2        5N1f+3        5N2f-3        5N2f-2        5N2f-1        5N2f0         5N2f+1        5N2f+2    
   26    5N2f+3        5N3f-3        5N3f-2        5N3f-1        5N3f0         5N3f+1        5N3f+2        5N3f+3        6H1s          6H2s      
   27    6H3s          6H4s          6H5s          6H1pz         6H1py         6H1px         6H2pz         6H2py         6H2px         6H3pz     
   28    6H3py         6H3px         6H4pz         6H4py         6H4px         6H1d-2        6H1d-1        6H1d0         6H1d+1        6H1d+2    
   29    6H2d-2        6H2d-1        6H2d0         6H2d+1        6H2d+2        6H3d-2        6H3d-1        6H3d0         6H3d+1        6H3d+2    
   30    7H1s          7H2s          7H3s          7H4s          7H5s          7H1pz         7H1py         7H1px         7H2pz         7H2py     
   31    7H2px         7H3pz         7H3py         7H3px         7H4pz         7H4py         7H4px         7H1d-2        7H1d-1        7H1d0     
   32    7H1d+1        7H1d+2        7H2d-2        7H2d-1        7H2d0         7H2d+1        7H2d+2        7H3d-2        7H3d-1        7H3d0     
   33    7H3d+1        7H3d+2        8H1s          8H2s          8H3s          8H4s          8H5s          8H1pz         8H1py         8H1px     
   34    8H2pz         8H2py         8H2px         8H3pz         8H3py         8H3px         8H4pz         8H4py         8H4px         8H1d-2    
   35    8H1d-1        8H1d0         8H1d+1        8H1d+2        8H2d-2        8H2d-1        8H2d0         8H2d+1        8H2d+2        8H3d-2    
   36    8H3d-1        8H3d0         8H3d+1        8H3d+2        9N1s          9N2s          9N3s          9N4s          9N5s          9N6s      
   37    9N7s          9N8s          9N9s          9N10s         9N11s         9N1pz         9N1py         9N1px         9N2pz         9N2py     
   38    9N2px         9N3pz         9N3py         9N3px         9N4pz         9N4py         9N4px         9N5pz         9N5py         9N5px     
   39    9N6pz         9N6py         9N6px         9N7pz         9N7py         9N7px         9N8pz         9N8py         9N8px         9N1d-2    
   40    9N1d-1        9N1d0         9N1d+1        9N1d+2        9N2d-2        9N2d-1        9N2d0         9N2d+1        9N2d+2        9N3d-2    
   41    9N3d-1        9N3d0         9N3d+1        9N3d+2        9N4d-2        9N4d-1        9N4d0         9N4d+1        9N4d+2        9N5d-2    
   42    9N5d-1        9N5d0         9N5d+1        9N5d+2        9N6d-2        9N6d-1        9N6d0         9N6d+1        9N6d+2        9N1f-3    
   43    9N1f-2        9N1f-1        9N1f0         9N1f+1        9N1f+2        9N1f+3        9N2f-3        9N2f-2        9N2f-1        9N2f0     
   44    9N2f+1        9N2f+2        9N2f+3        9N3f-3        9N3f-2        9N3f-1        9N3f0         9N3f+1        9N3f+2        9N3f+3    
   45   10H1s         10H2s         10H3s         10H4s         10H5s         10H1pz        10H1py        10H1px        10H2pz        10H2py     
   46   10H2px        10H3pz        10H3py        10H3px        10H4pz        10H4py        10H4px        10H1d-2       10H1d-1       10H1d0     
   47   10H1d+1       10H1d+2       10H2d-2       10H2d-1       10H2d0        10H2d+1       10H2d+2       10H3d-2       10H3d-1       10H3d0     
   48   10H3d+1       10H3d+2       11H1s         11H2s         11H3s         11H4s         11H5s         11H1pz        11H1py        11H1px     
   49   11H2pz        11H2py        11H2px        11H3pz        11H3py        11H3px        11H4pz        11H4py        11H4px        11H1d-2    
   50   11H1d-1       11H1d0        11H1d+1       11H1d+2       11H2d-2       11H2d-1       11H2d0        11H2d+1       11H2d+2       11H3d-2    
   51   11H3d-1       11H3d0        11H3d+1       11H3d+2       12H1s         12H2s         12H3s         12H4s         12H5s         12H1pz     
   52   12H1py        12H1px        12H2pz        12H2py        12H2px        12H3pz        12H3py        12H3px        12H4pz        12H4py     
   53   12H4px        12H1d-2       12H1d-1       12H1d0        12H1d+1       12H1d+2       12H2d-2       12H2d-1       12H2d0        12H2d+1    
   54   12H2d+2       12H3d-2       12H3d-1       12H3d0        12H3d+1       12H3d+2    
 
 Maximum number of basis functions per shell:   30
 Total number of basis functions:    546
 
 
 Fitting basis set for the correlation calculation:
 
   1  N  aug-cc-pvdz-ri [ 8s 6p 5d 3f | 8s 6p 5d 3f ]
   2  H  aug-cc-pvdz-ri [ 4s 3p 2d | 4s 3p 2d ]
   3  H  aug-cc-pvdz-ri [ 4s 3p 2d | 4s 3p 2d ]
   4  H  aug-cc-pvdz-ri [ 4s 3p 2d | 4s 3p 2d ]
   5  N  aug-cc-pvdz-ri [ 8s 6p 5d 3f | 8s 6p 5d 3f ]
   6  H  aug-cc-pvdz-ri [ 4s 3p 2d | 4s 3p 2d ]
   7  H  aug-cc-pvdz-ri [ 4s 3p 2d | 4s 3p 2d ]
   8  H  aug-cc-pvdz-ri [ 4s 3p 2d | 4s 3p 2d ]
   9  N  aug-cc-pvdz-ri [ 8s 6p 5d 3f | 8s 6p 5d 3f ]
  10  H  aug-cc-pvdz-ri [ 4s 3p 2d | 4s 3p 2d ]
  11  H  aug-cc-pvdz-ri [ 4s 3p 2d | 4s 3p 2d ]
  12  H  aug-cc-pvdz-ri [ 4s 3p 2d | 4s 3p 2d ]
 
 Basis functions:
            1             2             3             4             5             6             7             8             9            10
    0    1N1s          1N2s          1N3s          1N4s          1N5s          1N6s          1N7s          1N8s          1N1pz         1N1py     
    1    1N1px         1N2pz         1N2py         1N2px         1N3pz         1N3py         1N3px         1N4pz         1N4py         1N4px     
    2    1N5pz         1N5py         1N5px         1N6pz         1N6py         1N6px         1N1d-2        1N1d-1        1N1d0         1N1d+1    
    3    1N1d+2        1N2d-2        1N2d-1        1N2d0         1N2d+1        1N2d+2        1N3d-2        1N3d-1        1N3d0         1N3d+1    
    4    1N3d+2        1N4d-2        1N4d-1        1N4d0         1N4d+1        1N4d+2        1N5d-2        1N5d-1        1N5d0         1N5d+1    
    5    1N5d+2        1N1f-3        1N1f-2        1N1f-1        1N1f0         1N1f+1        1N1f+2        1N1f+3        1N2f-3        1N2f-2    
    6    1N2f-1        1N2f0         1N2f+1        1N2f+2        1N2f+3        1N3f-3        1N3f-2        1N3f-1        1N3f0         1N3f+1    
    7    1N3f+2        1N3f+3        2H1s          2H2s          2H3s          2H4s          2H1pz         2H1py         2H1px         2H2pz     
    8    2H2py         2H2px         2H3pz         2H3py         2H3px         2H1d-2        2H1d-1        2H1d0         2H1d+1        2H1d+2    
    9    2H2d-2        2H2d-1        2H2d0         2H2d+1        2H2d+2        3H1s          3H2s          3H3s          3H4s          3H1pz     
   10    3H1py         3H1px         3H2pz         3H2py         3H2px         3H3pz         3H3py         3H3px         3H1d-2        3H1d-1    
   11    3H1d0         3H1d+1        3H1d+2        3H2d-2        3H2d-1        3H2d0         3H2d+1        3H2d+2        4H1s          4H2s      
   12    4H3s          4H4s          4H1pz         4H1py         4H1px         4H2pz         4H2py         4H2px         4H3pz         4H3py     
   13    4H3px         4H1d-2        4H1d-1        4H1d0         4H1d+1        4H1d+2        4H2d-2        4H2d-1        4H2d0         4H2d+1    
   14    4H2d+2        5N1s          5N2s          5N3s          5N4s          5N5s          5N6s          5N7s          5N8s          5N1pz     
   15    5N1py         5N1px         5N2pz         5N2py         5N2px         5N3pz         5N3py         5N3px         5N4pz         5N4py     
   16    5N4px         5N5pz         5N5py         5N5px         5N6pz         5N6py         5N6px         5N1d-2        5N1d-1        5N1d0     
   17    5N1d+1        5N1d+2        5N2d-2        5N2d-1        5N2d0         5N2d+1        5N2d+2        5N3d-2        5N3d-1        5N3d0     
   18    5N3d+1        5N3d+2        5N4d-2        5N4d-1        5N4d0         5N4d+1        5N4d+2        5N5d-2        5N5d-1        5N5d0     
   19    5N5d+1        5N5d+2        5N1f-3        5N1f-2        5N1f-1        5N1f0         5N1f+1        5N1f+2        5N1f+3        5N2f-3    
   20    5N2f-2        5N2f-1        5N2f0         5N2f+1        5N2f+2        5N2f+3        5N3f-3        5N3f-2        5N3f-1        5N3f0     
   21    5N3f+1        5N3f+2        5N3f+3        6H1s          6H2s          6H3s          6H4s          6H1pz         6H1py         6H1px     
   22    6H2pz         6H2py         6H2px         6H3pz         6H3py         6H3px         6H1d-2        6H1d-1        6H1d0         6H1d+1    
   23    6H1d+2        6H2d-2        6H2d-1        6H2d0         6H2d+1        6H2d+2        7H1s          7H2s          7H3s          7H4s      
   24    7H1pz         7H1py         7H1px         7H2pz         7H2py         7H2px         7H3pz         7H3py         7H3px         7H1d-2    
   25    7H1d-1        7H1d0         7H1d+1        7H1d+2        7H2d-2        7H2d-1        7H2d0         7H2d+1        7H2d+2        8H1s      
   26    8H2s          8H3s          8H4s          8H1pz         8H1py         8H1px         8H2pz         8H2py         8H2px         8H3pz     
   27    8H3py         8H3px         8H1d-2        8H1d-1        8H1d0         8H1d+1        8H1d+2        8H2d-2        8H2d-1        8H2d0     
   28    8H2d+1        8H2d+2        9N1s          9N2s          9N3s          9N4s          9N5s          9N6s          9N7s          9N8s      
   29    9N1pz         9N1py         9N1px         9N2pz         9N2py         9N2px         9N3pz         9N3py         9N3px         9N4pz     
   30    9N4py         9N4px         9N5pz         9N5py         9N5px         9N6pz         9N6py         9N6px         9N1d-2        9N1d-1    
   31    9N1d0         9N1d+1        9N1d+2        9N2d-2        9N2d-1        9N2d0         9N2d+1        9N2d+2        9N3d-2        9N3d-1    
   32    9N3d0         9N3d+1        9N3d+2        9N4d-2        9N4d-1        9N4d0         9N4d+1        9N4d+2        9N5d-2        9N5d-1    
   33    9N5d0         9N5d+1        9N5d+2        9N1f-3        9N1f-2        9N1f-1        9N1f0         9N1f+1        9N1f+2        9N1f+3    
   34    9N2f-3        9N2f-2        9N2f-1        9N2f0         9N2f+1        9N2f+2        9N2f+3        9N3f-3        9N3f-2        9N3f-1    
   35    9N3f0         9N3f+1        9N3f+2        9N3f+3       10H1s         10H2s         10H3s         10H4s         10H1pz        10H1py     
   36   10H1px        10H2pz        10H2py        10H2px        10H3pz        10H3py        10H3px        10H1d-2       10H1d-1       10H1d0     
   37   10H1d+1       10H1d+2       10H2d-2       10H2d-1       10H2d0        10H2d+1       10H2d+2       11H1s         11H2s         11H3s      
   38   11H4s         11H1pz        11H1py        11H1px        11H2pz        11H2py        11H2px        11H3pz        11H3py        11H3px     
   39   11H1d-2       11H1d-1       11H1d0        11H1d+1       11H1d+2       11H2d-2       11H2d-1       11H2d0        11H2d+1       11H2d+2    
   40   12H1s         12H2s         12H3s         12H4s         12H1pz        12H1py        12H1px        12H2pz        12H2py        12H2px     
   41   12H3pz        12H3py        12H3px        12H1d-2       12H1d-1       12H1d0        12H1d+1       12H1d+2       12H2d-2       12H2d-1    
   42   12H2d0        12H2d+1       12H2d+2    
 
 Maximum number of basis functions per shell:   30
 Total number of basis functions:    423
 
 
 Old basis set for SCF restart
 
   1  N  def2-svp [ 7s 4p 1d | 3s 2p 1d ]
   2  H  def2-svp [ 4s 1p | 2s 1p ]
   3  H  def2-svp [ 4s 1p | 2s 1p ]
   4  H  def2-svp [ 4s 1p | 2s 1p ]
   5  N  def2-svp [ 7s 4p 1d | 3s 2p 1d ]
   6  H  def2-svp [ 4s 1p | 2s 1p ]
   7  H  def2-svp [ 4s 1p | 2s 1p ]
   8  H  def2-svp [ 4s 1p | 2s 1p ]
   9  N  def2-svp [ 7s 4p 1d | 3s 2p 1d ]
  10  H  def2-svp [ 4s 1p | 2s 1p ]
  11  H  def2-svp [ 4s 1p | 2s 1p ]
  12  H  def2-svp [ 4s 1p | 2s 1p ]
 
 Basis functions:
            1             2             3             4             5             6             7             8             9            10
    0    1N1s          1N2s          1N3s          1N1pz         1N1py         1N1px         1N2pz         1N2py         1N2px         1N1d-2    
    1    1N1d-1        1N1d0         1N1d+1        1N1d+2        2H1s          2H2s          2H1pz         2H1py         2H1px         3H1s      
    2    3H2s          3H1pz         3H1py         3H1px         4H1s          4H2s          4H1pz         4H1py         4H1px         5N1s      
    3    5N2s          5N3s          5N1pz         5N1py         5N1px         5N2pz         5N2py         5N2px         5N1d-2        5N1d-1    
    4    5N1d0         5N1d+1        5N1d+2        6H1s          6H2s          6H1pz         6H1py         6H1px         7H1s          7H2s      
    5    7H1pz         7H1py         7H1px         8H1s          8H2s          8H1pz         8H1py         8H1px         9N1s          9N2s      
    6    9N3s          9N1pz         9N1py         9N1px         9N2pz         9N2py         9N2px         9N1d-2        9N1d-1        9N1d0     
    7    9N1d+1        9N1d+2       10H1s         10H2s         10H1pz        10H1py        10H1px        11H1s         11H2s         11H1pz     
    8   11H1py        11H1px        12H1s         12H2s         12H1pz        12H1py        12H1px     
 
 Maximum number of basis functions per shell:   30
 Total number of basis functions:     87
 
 
 Character table for point group C1:
 
          E  
    A     1
 
 Number of basis functions per irrep:
    A     150
 
 
 Calculation of overlap integrals...
 CPU time [min]:     0.184                   Wall time [min]:     0.005
 
 Calculation of the square root of the overlap matrix...
 Minimum eigenvalue of the overlap matrix: 0.119432E-02
 CPU time [min]:     0.201                   Wall time [min]:     0.006
 
 Calculation of kinetic energy integrals...
 CPU time [min]:     0.205                   Wall time [min]:     0.006
 Calculation of dipole moment integrals...
 CPU time [min]:     0.206                   Wall time [min]:     0.006
 Calculation of nuclear attraction integrals...
 CPU time [min]:     0.208                   Wall time [min]:     0.006
 Calculation of overlap integrals...
 CPU time [min]:     0.209                   Wall time [min]:     0.006
 
 Calculation of prescreening integrals...
 CPU time [min]:     0.277                   Wall time [min]:     0.007
 
 Calculation of two-center Coulomb integrals...
   1% done.
  13% done.
  24% done.
  37% done.
  53% done.
  68% done.
  80% done.
  95% done.
 100% done.
 CPU time [min]:     0.289                   Wall time [min]:     0.007
 
 Cholesky decomposition of the two-center matrix...
 Reciprocal of the condition number:  0.111673E-04
 CPU time [min]:     0.304                   Wall time [min]:     0.007
 

 ************************ 2026-02-26 21:29:36 *************************
 Executing scf...

 @scfsetup: integrals calculated directly
            mrcc/integ direct run
 @scfsetup: calculating on full matrices
            not using symmetry adapted basis
 @scfsetup: diis switched on
 @scfsetup: number of steps to extrapolate from  10
 @scfsetup: tolerance in energy deviation    0.100000E-07
            tolerance in density deviation    0.100000E-08
 @scfsetup: maximum number of iterations: 200
 @scfsetup: restricted closed shell hf calc
 @scfsetup: restarting scf from SCFDENSITIES file
 @scfsetup: occupation set:
            from initial orbitals
 @scfsetup: Parameter-set for SCF acceleration: normal
 @scfsetup: diis runs from iteration:   2
 @scfsetup: diis runs to iteration: 200
 @scfsetup: diis runs in every iteration
 @scfsetup: diiswatch is disabled                   
 @scfsetup: diis dtol criteria to switch on:      0.0000E+00
           (or the iteration number below is reached)
 @scfsetup: static damping scheme
            iteration step criteria to turn damping off: 3
 @scfsetup: dynamic level shifting
            tolarance in HOMO-LUMO gap:  0.200
            tolarance in density deviation:     0.0000E+00
            iteration step criteria to turn level shifting off: 8
 Allocation of 46.0 Gbytes of memory...
 ======================================================================
 ITERATION STEP   1
 CPU time [min]:     0.038                   Wall time [min]:     0.011
 

 SCF control                  : initial
 Damping factor/level shift   : 0.000/0.200
 DIIS [start/end/frequency]   :   2 /200 /  1

 Constructing Fock-matrix...
 Inverse square root: The matrix is not positive definite!
 
 Pipek-Mezey localization...
 Step  Convergence
   1   1.132994965088
   2   0.376729071596
   3   0.016902950685
   4   0.001283146945
   5   0.000127079527
   6   0.000015424412
   7   0.000002155484
   8   0.000000300729
   9   0.000000042799
  10   0.000000006104
 CPU time [min]:     0.067                   Wall time [min]:     0.011
 
 Constructing local fitting domains...
 Maximum number of atoms in fitting domains:   12
 Average number of atoms in fitting domains:   12.0
 
 First step of Coulomb + first step of exchange...
 Exchange contribution is evaluated for MOs 1 to 5.
   1% done.
  13% done.
  24% done.
  37% done.
  48% done.
  67% done.
  78% done.
  92% done.
 100% done.
 Fitting and assembly step of exchange...
 CPU time [min]:     0.184                   Wall time [min]:     0.013
 
 Second step of Coulomb...
   1% done.
  13% done.
  24% done.
  37% done.
  48% done.
  67% done.
  78% done.
  92% done.
 100% done.
 CPU time [min]:     0.214                   Wall time [min]:     0.013
 
 Gradient norm:      1.2453E-01
 RMS of [F,P]:                                         0.00186426274565
 RMS of difference density:                            0.00547332891851
 Gap [au]:  0.45129709
 ALPHA OCC:   5
 BETA  OCC:   5
 
 ***HARTREE-FOCK ENERGY IN STEP   1 IS        -56.1946568654287830 [AU]
 ======================================================================
 ITERATION STEP   2
 CPU time [min]:     0.235                   Wall time [min]:     0.014
 

 SCF control                  : diis
 Damping factor/level shift   : 0.000/0.000
 DIIS [start/end/frequency]   :   2 /200 /  1

 Constructing Fock-matrix...
 
 Pipek-Mezey localization...
 Step  Convergence
   1   0.010167476715
   2   0.009887545618
   3   0.000121234821
   4   0.000003132312
   5   0.000000214675
   6   0.000000023185
   7   0.000000002950
 CPU time [min]:     0.260                   Wall time [min]:     0.014
 
 Constructing local fitting domains...
 Maximum number of atoms in fitting domains:   12
 Average number of atoms in fitting domains:   12.0
 
 First step of Coulomb + first step of exchange...
 Exchange contribution is evaluated for MOs 1 to 5.
   1% done.
  13% done.
  24% done.
  37% done.
  48% done.
  67% done.
  78% done.
  92% done.
 100% done.
 Fitting and assembly step of exchange...
 CPU time [min]:     0.364                   Wall time [min]:     0.016
 
 Second step of Coulomb...
   1% done.
  13% done.
  24% done.
  37% done.
  48% done.
  67% done.
  78% done.
  92% done.
 100% done.
 CPU time [min]:     0.394                   Wall time [min]:     0.016
 
 Gradient norm:      1.7134E-02
 DIIS is running in this iteration step.
 RMS of [F,P]:                                         0.00031225822260
 RMS of difference density:                            0.00083634864092
 Gap [au]:  0.45355295
 ALPHA OCC:   5
 BETA  OCC:   5
 
 ***HARTREE-FOCK ENERGY IN STEP   2 IS        -56.2039384784266787 [AU]
 
 Step comparison  Energy Drift [au]  DIIS error drift  Gradient drift
        1            9.2816E-03         1.5520E-03       1.0740E-01
        2            5.6204E+01         1.0000E-09       1.0740E-01
 ======================================================================
 ITERATION STEP   3
 CPU time [min]:     0.415                   Wall time [min]:     0.017
 

 SCF control                  : diis
 Damping factor/level shift   : 0.000/0.000
 DIIS [start/end/frequency]   :   2 /200 /  1

 Constructing Fock-matrix...
 
 Pipek-Mezey localization...
 Step  Convergence
   1   0.010010999821
   2   0.009918112597
   3   0.000089741609
   4   0.000002176195
   5   0.000000099560
   6   0.000000007574
 CPU time [min]:     0.440                   Wall time [min]:     0.017
 
 Constructing local fitting domains...
 Local fitting domains are unchanged.
 
 First step of Coulomb + first step of exchange...
 Exchange contribution is evaluated for MOs 1 to 5.
   1% done.
  13% done.
  24% done.
  37% done.
  48% done.
  67% done.
  78% done.
  92% done.
 100% done.
 Fitting and assembly step of exchange...
 CPU time [min]:     0.542                   Wall time [min]:     0.019
 
 Second step of Coulomb...
   1% done.
  13% done.
  24% done.
  37% done.
  48% done.
  67% done.
  78% done.
  92% done.
 100% done.
 CPU time [min]:     0.572                   Wall time [min]:     0.019
 
 Gradient norm:      5.7525E-03
 DIIS is running in this iteration step.
 RMS of [F,P]:                                         0.00010460892785
 RMS of difference density:                            0.00029583224859
 Gap [au]:  0.45480263
 ALPHA OCC:   5
 BETA  OCC:   5
 
 ***HARTREE-FOCK ENERGY IN STEP   3 IS        -56.2046176101544930 [AU]
 
 Step comparison  Energy Drift [au]  DIIS error drift  Gradient drift
        2            6.7913E-04         2.0765E-04       1.1381E-02
 ======================================================================
 ITERATION STEP   4
 CPU time [min]:     0.593                   Wall time [min]:     0.019
 

 SCF control                  : diis
 Damping factor/level shift   : 0.000/0.000
 DIIS [start/end/frequency]   :   2 /200 /  1

 Constructing Fock-matrix...
 
 Pipek-Mezey localization...
 Step  Convergence
   1   0.009998240363
   2   0.009959660076
   3   0.000061671776
   4   0.000001535536
   5   0.000000074278
   6   0.000000004906
 CPU time [min]:     0.618                   Wall time [min]:     0.020
 
 Constructing local fitting domains...
 Local fitting domains are unchanged.
 
 First step of Coulomb + first step of exchange...
 Exchange contribution is evaluated for MOs 1 to 5.
   1% done.
  13% done.
  24% done.
  37% done.
  48% done.
  67% done.
  78% done.
  92% done.
 100% done.
 Fitting and assembly step of exchange...
 CPU time [min]:     0.719                   Wall time [min]:     0.022
 
 Second step of Coulomb...
   1% done.
  13% done.
  24% done.
  37% done.
  48% done.
  67% done.
  78% done.
  92% done.
 100% done.
 CPU time [min]:     0.749                   Wall time [min]:     0.022
 
 Gradient norm:      2.6100E-03
 DIIS is running in this iteration step.
 RMS of [F,P]:                                         0.00003024763622
 RMS of difference density:                            0.00005466769701
 Gap [au]:  0.45329822
 ALPHA OCC:   5
[...]
   92    2     0.991674        5    7
   93    2     0.993565        5    7
   94    2     0.993412        5    7
   95    2     0.998367        5    8
   96    2     0.997644        5    8
   97    2     0.998664        5    8
   98    2     0.998646        5    8
   99    2     0.999095        5    8
  100    2     0.999233        5    8
  101    2     0.989528        5    8
  102    2     0.996587        5    8
  103    2     0.992682        5    8
  104    1     0.999998        9
  105    1     0.999418        9
  106    1     0.998857        9
  107    1     0.981697        9
  108    1     0.999987        9
  109    1     0.999784        9
  110    1     0.998885        9
  111    1     0.999953        9
  112    1     0.999227        9
  113    1     0.996157        9
  114    1     0.996009        9
  115    1     0.980303        9
  116    2     0.999580        5    9
  117    1     0.999984        9
  118    1     1.000000        9
  119    1     0.999989        9
  120    1     0.999999        9
  121    1     0.999982        9
  122    1     0.997314        9
  123    1     0.999957        9
  124    1     0.998425        9
  125    1     0.999821        9
  126    1     0.997510        9
  127    2     0.999844        5   10
  128    2     0.999643        5   10
  129    2     0.999245        5   10
  130    1     0.999929       10
  131    1     0.999078       10
  132    1     0.997106       10
  133    1     0.991280       10
  134    2     0.985923        6   10
  135    2     0.999571        5   10
  136    1     0.999525       11
  137    1     0.998647       11
  138    2     0.999826        5   11
  139    1     0.999998       11
  140    1     0.999997       11
  141    1     0.999983       11
  142    1     0.999546       11
  143    1     0.999132       11
  144    1     0.996469       11
  145    1     0.999603       12
  146    1     0.998880       12
  147    1     0.982035       12
  148    1     1.000000       12
  149    1     0.999995       12
  150    1     0.999988       12
  151    1     0.999896       12
  152    1     0.998925       12
  153    1     0.997443       12
 CPU time [min]:     0.034                   Wall time [min]:     0.004
 
 C1 point group was detected
 
 Constructing orbital domains...
 CPU time [min]:     0.044                   Wall time [min]:     0.004
 
 Dimensions of the primary domains:     Minimum / Average / Maximum
 
 Number of atoms in domain:                   4       4.2         5
 Number of atoms in occ BP domain:            4       4.0         4
 Number of atoms in PAO BP domain:            1       1.4         4
 Number of atomic orbitals:                  50      52.2        59
 Number of PAOs:                             45      46.0        49
 
 Prescreening pairs...
 CPU time [min]:     0.065                   Wall time [min]:     0.004
 
 Occupied LMO domain definition with Boughton-Pulay completeness:    0.9999500000
 
   MO  Natoms  Completeness   Atoms
    1    8     0.999993        3    5    6    7    8    9   10   12
    2    8     0.999975        3    5    6    7    8    9   11   12
    3    8     0.999997        1    3    5    6    7    8    9   10
    4   10     0.999992        1    3    4    5    6    7    8   10   11   12
 
 Executing the Boughton-Pulay algorithm...
  with occ MO completeness:    0.9850000000
 
   MO  Natoms  Completeness   Atoms
    1    1     0.998492        5
    2    2     0.999079        5    6
    3    2     0.999063        5    7
    4    2     0.999075        5    8
 CPU time [min]:     0.078                   Wall time [min]:     0.004
 
 Dimensions of the occupied LMO domains:  Minimum / Average / Maximum
 
 Number of atoms in domain:                   8       8.5        10
 Number of atomic orbitals:                 100     108.0       118
 
 Total number of pairs:   6
 Number of distant pairs: 0 (0.0%)
 Sum of multipole based pair energies:      0.0000000000
 
 CPU time [min]:     0.081                   Wall time [min]:     0.004
 Number of strong pairs: 6 (100.0%)
 chtol from minp:   1.000000000000000E-006
        1.93 MB memory is used for domain independent quantities
 
 Calculating the contribution of occupied LMOs...
    using local fitting domains
 
 MO:     1
 Number of atoms in domain:      12
    Number of atoms in PCD:      12
 Number of atomic orbitals:     150
 Number of atoms for local DF:   12
 Number of fitting functions:   423 (100.00%)
 Number of occupied orbitals:     4
 Number of virtual  orbitals:   145
 Number of Cholesky vectors:      9
 MP2 energy in ED [au]:          -0.050761285809
 Number of occupied LNOs:         4 (100.00%)
 Number of virtual  LNOs:        43  (29.66%)
 Number of Cholesky vectors:      7
 MP2 energy in LIS [au]:         -0.050751437702
 Correction for frozen LNO [au]: -0.000009848108     (0.019%)
 Number of NAFs:                118  (27.90%)
 CPU time [min]:     0.864                   Wall time [min]:     0.018
 

 Direct DF-CCSD(T) calculation
 
 Convergence criterion:  1.0E-05
 
 Number of occupied/virtual/auxiliary orbitals:     4    43   118
     10.69 MB is the minimal memory requirement for (T)
      6.50 MB is the minimal memory requirement for CCSD
 
 MP2 correlation energy [au]:       -0.200582417583
 
 LMP2 domain correlation energy contribution [au]:       -0.050748400305
 
 CPU time [min]:     0.918                   Wall time [min]:     0.019
 
 
 Starting CCSD iterations...
 
                     Residual norm       Correlation Energy
 Iteration  1        0.119265688080       -0.210094547551
 Iteration  2        0.032985010250       -0.214882743712
 Iteration  3        0.009906774634       -0.215826061458
 Iteration  4        0.002569300270       -0.215804363138
 Iteration  5        0.000722799317       -0.215820129130
 Iteration  6        0.000210747024       -0.215819978821
 Iteration  7        0.000058982277       -0.215818618474
 
 CCSD iteration has converged in  7 steps.
       20.22 MB memory was utilized by CCSD
 
 T1 diagnostic:      9.728E-03            D1 diagnostic:      2.324E-02
 
 T1 contribution [au]:                         0.000000000000
 CCSD correlation energy [au]:                -0.053976303885
 
 CPU time [min]:     1.032                   Wall time [min]:     0.021
 
 Calculation of (T) correction...
 
 Laplace threshold, nquadmin:  1.00E-03   4
 Number of quadrature points:    4
 
       10.80 MB memory is utilized for (T)

 0%       25%       50%       75%       100%
 |---------|---------|---------|---------| 
 
 (T) correction [au]:                   -0.001538475107
 CCSD(T) correlation energy [au]:       -0.055514778992
 
 CPU time [min]:     1.083                   Wall time [min]:     0.022
 
 MO:     2
 Number of atoms in domain:      12
    Number of atoms in PCD:      12
 Number of atomic orbitals:     150
 Number of atoms for local DF:   12
 Number of fitting functions:   423 (100.00%)
 Number of occupied orbitals:     4
 Number of virtual  orbitals:   145
 Number of Cholesky vectors:      9
 MP2 energy in ED [au]:          -0.050062715715
 Number of occupied LNOs:         4 (100.00%)
 Number of virtual  LNOs:        40  (27.59%)
 Number of Cholesky vectors:      7
 MP2 energy in LIS [au]:         -0.050055441858
 Correction for frozen LNO [au]: -0.000007273857     (0.015%)
 Number of NAFs:                111  (26.24%)
 CPU time [min]:     1.722                   Wall time [min]:     0.032
 

 Direct DF-CCSD(T) calculation
 
 Convergence criterion:  1.0E-05
 
 Number of occupied/virtual/auxiliary orbitals:     4    40   111
      9.12 MB is the minimal memory requirement for (T)
      5.79 MB is the minimal memory requirement for CCSD
 
 MP2 correlation energy [au]:       -0.200502995493
 
 LMP2 domain correlation energy contribution [au]:       -0.050048899960
 
 CPU time [min]:     1.772                   Wall time [min]:     0.033
 
 
 Starting CCSD iterations...
 
                     Residual norm       Correlation Energy
 Iteration  1        0.119172854444       -0.210020250402
 Iteration  2        0.032868268138       -0.214868914456
 Iteration  3        0.009406073768       -0.215718210029
 Iteration  4        0.002389094815       -0.215703356486
 Iteration  5        0.000629237217       -0.215722052537
 Iteration  6        0.000179208832       -0.215721362075
 Iteration  7        0.000045390724       -0.215720890828
 
 CCSD iteration has converged in  7 steps.
       16.10 MB memory was utilized by CCSD
 
 T1 diagnostic:      9.334E-03            D1 diagnostic:      2.195E-02
 
 T1 contribution [au]:                         0.000000000000
 CCSD correlation energy [au]:                -0.054036316565
 
 CPU time [min]:     1.880                   Wall time [min]:     0.035
 
 Calculation of (T) correction...
 
 Laplace threshold, nquadmin:  1.00E-03   4
 Number of quadrature points:    4
 
        9.22 MB memory is utilized for (T)

 0%       25%       50%       75%       100%
 |---------|---------|---------|---------| 
 
 (T) correction [au]:                   -0.001366374796
 CCSD(T) correlation energy [au]:       -0.055402691361
 
 CPU time [min]:     1.926                   Wall time [min]:     0.036
 
 MO:     3
 Number of atoms in domain:      12
    Number of atoms in PCD:      12
 Number of atomic orbitals:     150
 Number of atoms for local DF:   12
 Number of fitting functions:   423 (100.00%)
 Number of occupied orbitals:     4
 Number of virtual  orbitals:   145
 Number of Cholesky vectors:      9
 MP2 energy in ED [au]:          -0.050074814420
 Number of occupied LNOs:         4 (100.00%)
 Number of virtual  LNOs:        40  (27.59%)
 Number of Cholesky vectors:      7
 MP2 energy in LIS [au]:         -0.050063660807
 Correction for frozen LNO [au]: -0.000011153613     (0.022%)
 Number of NAFs:                112  (26.48%)
 CPU time [min]:     2.528                   Wall time [min]:     0.046
 

 Direct DF-CCSD(T) calculation
 
 Convergence criterion:  1.0E-05
 
 Number of occupied/virtual/auxiliary orbitals:     4    40   112
      9.14 MB is the minimal memory requirement for (T)
      5.81 MB is the minimal memory requirement for CCSD
 
 MP2 correlation energy [au]:       -0.200502078509
 
 LMP2 domain correlation energy contribution [au]:       -0.050057301720
 
 CPU time [min]:     2.579                   Wall time [min]:     0.047
 
 
 Starting CCSD iterations...
 
                     Residual norm       Correlation Energy
 Iteration  1        0.119173427652       -0.210019125912
 Iteration  2        0.032887055472       -0.214862274115
 Iteration  3        0.009466829221       -0.215724231862
 Iteration  4        0.002418134098       -0.215707211813
 Iteration  5        0.000644604489       -0.215725868427
 Iteration  6        0.000189102184       -0.215725029358
 Iteration  7        0.000049779269       -0.215724421967
 
 CCSD iteration has converged in  7 steps.
       16.12 MB memory was utilized by CCSD
 
 T1 diagnostic:      9.427E-03            D1 diagnostic:      2.227E-02
 
 T1 contribution [au]:                         0.000000000000
 CCSD correlation energy [au]:                -0.054048850595
 
 CPU time [min]:     2.685                   Wall time [min]:     0.049
 
 Calculation of (T) correction...
 
 Laplace threshold, nquadmin:  1.00E-03   4
 Number of quadrature points:    4
 
        9.24 MB memory is utilized for (T)

 0%       25%       50%       75%       100%
 |---------|---------|---------|---------| 
 
 (T) correction [au]:                   -0.001366618919
 CCSD(T) correlation energy [au]:       -0.055415469514
 
 CPU time [min]:     2.733                   Wall time [min]:     0.050
 
 MO:     4
 Number of atoms in domain:      12
    Number of atoms in PCD:      12
 Number of atomic orbitals:     150
 Number of atoms for local DF:   12
 Number of fitting functions:   423 (100.00%)
 Number of occupied orbitals:     4
 Number of virtual  orbitals:   145
 Number of Cholesky vectors:      9
 MP2 energy in ED [au]:          -0.050078560708
 Number of occupied LNOs:         4 (100.00%)
 Number of virtual  LNOs:        40  (27.59%)
 Number of Cholesky vectors:      7
 MP2 energy in LIS [au]:         -0.050067970519
 Correction for frozen LNO [au]: -0.000010590189     (0.021%)
 Number of NAFs:                112  (26.48%)
 CPU time [min]:     3.368                   Wall time [min]:     0.060
 

 Direct DF-CCSD(T) calculation
 
 Convergence criterion:  1.0E-05
 
 Number of occupied/virtual/auxiliary orbitals:     4    40   112
      9.14 MB is the minimal memory requirement for (T)
      5.81 MB is the minimal memory requirement for CCSD
 
 MP2 correlation energy [au]:       -0.200513419130
 
 LMP2 domain correlation energy contribution [au]:       -0.050062213874
 
 CPU time [min]:     3.418                   Wall time [min]:     0.061
 
 
 Starting CCSD iterations...
 
                     Residual norm       Correlation Energy
 Iteration  1        0.119193749841       -0.210028627628
 Iteration  2        0.032913950573       -0.214861491159
 Iteration  3        0.009558838789       -0.215742500877
 Iteration  4        0.002445314460       -0.215722745472
 Iteration  5        0.000657812482       -0.215741144391
 Iteration  6        0.000191520119       -0.215740370879
 Iteration  7        0.000050124601       -0.215739636264
 
 CCSD iteration has converged in  7 steps.
       16.12 MB memory was utilized by CCSD
 
 T1 diagnostic:      9.521E-03            D1 diagnostic:      2.256E-02
 
 T1 contribution [au]:                         0.000000000000
 CCSD correlation energy [au]:                -0.054051594762
 
 CPU time [min]:     3.523                   Wall time [min]:     0.063
 
 Calculation of (T) correction...
 
 Laplace threshold, nquadmin:  1.00E-03   4
 Number of quadrature points:    4
 
        9.24 MB memory is utilized for (T)

 0%       25%       50%       75%       100%
 |---------|---------|---------|---------| 
 
 (T) correction [au]:                   -0.001367612655
 CCSD(T) correlation energy [au]:       -0.055419207417
 
 CPU time [min]:     3.570                   Wall time [min]:     0.063
 
 **********************************************************************
 Dimensions of the extended domains:    Minimum / Average / Maximum
 
 Number of atoms in domain:                  12      12.0        12
 Number of atomic orbitals:                 150     150.0       150
 Number of fitting functions:               423     423.0       423
 Number of occupied localized MOs:            4       4.0         4
 Number of PAOs:                            145     145.0       145
 Number of occupied LNOs:                     4       4.0         4
 Number of virtual  LNOs:                    40      40.8        43
 Number of NAFs:                            111     113.2       118
 
 **********************************************************************
 Distant (and weak) pair contributions, corrections
 
 Sum of pair energies [au]:                     0.000000000000    (0.000%)
 Sum of energy corrections [au]:               -0.000038865767    (0.019%)
 Pair energies + LNO corrections [au]:         -0.000038865767
 Sum of LMP2 contributions [au]:               -0.200977376652
 
 **********************************************************************
  Time of manipulations in the EDs:      max CPU/Wall [s]  all CPU/Wall [min]
 
 PD construction & multipole pair E       4.75     0.11     0.08     0.00
 Construct MO basis of the ED             1.33     0.02     0.08     0.00
 (mu,nu|P) evaluation & trf 2 (ai|P)      4.82     0.08     0.29     0.00
 Evaluate MP2 energy of the ED            0.22     0.00     0.01     0.00
 Transformations to the LNO basis         0.80     0.01     0.05     0.00
 Build W_PQ (Jai or Jpi part)             1.39     0.04     0.03     0.00
 Evaluate MP2 energy of the LIS           0.14     0.00     0.01     0.00
 (mu,nu|P) evaluation & trf 2 J(abQ)     28.78     0.53     1.63     0.03
 Total of the above for all EDs          37.48     0.69     2.10     0.04
 
 **********************************************************************
 Maximum memory requirement [MB]:       
 
 PD construction & multipole pair E          2.6
 AO integral evaluation in the EDs         315.2
 (mu,nu|P) evaluation & trf 2 (aI|P)       333.1
 Evaluate MP2 energy in the EDs             13.9
 Transformation to the LNO basis             6.3
 (mu,nu|P) to Jab transformation           320.0
 Evaluate MP2 energy in the LIS              9.0
 Minimum requirement for LIS CCSD            6.5
 Actually allocated  for LIS CCSD           20.2
 Minimum requirement for LIS (T)            10.7
 Actually allocated  for LIS (T)            10.8
 
 ======================================================================
 ======================================================================
 
 
 
 ======================================================================
 ======================================================================
 
 Final local CC results:
 
 Minimum number of correlated electrons:         8       (100.0%)
 Maximum number of correlated electrons:         8       (100.0%)
 Average number of correlated electrons:         8.0     (100.0%)
 Minimum number of correlated orbitals:         44       ( 29.5%)
 Maximum number of correlated orbitals:         47       ( 31.5%)
 Average number of correlated orbitals:         44.8     ( 30.0%)
 
 CPU time for integral calculations [min]:                  0.313
 Wall time for integral calculations [min]:                 0.007
 
 CPU time for SCF calculation [min]:                        2.546
 Wall time for SCF calculation [min]:                       0.064
 
 CPU time for orbital localization [min]:                   0.003
 Wall time for orbital localization [min]:                  0.016
 
 CPU time for integral transformations [min]:               2.797
 Wall time for integral transformations [min]:              0.051
 
 Reference energy [au]:                                   -56.204727634761
 
 LMP2 correlation energy [au]:                             -0.200977376652
 Total LMP2 energy [au]:                                  -56.405705011413
 
 Total MP2 correction for dropped NAFs [au]:               -0.000021695026
 Total MP2 correction [au]:                                -0.000060560794
 
 CPU time for CCSD calculations [min]:                      0.603
 Total CPU time for CCSD [min]:                             6.262
 Wall time for CCSD calculations [min]:                     0.010
 Total wall time for CCSD [min]:                            0.148
 
 CCSD correlation energy [au]:                             -0.216113065807
 Total CCSD energy [au]:                                  -56.420840700568
 CCSD correlation energy + 0.5 MP2 corrections [au]:       -0.216143346204
 Total LNO-CCSD energy with MP2 corrections [au]:         -56.420870980965
 
 CPU time for (T) corrections [min]:                        0.191
 Total CPU time for CCSD(T) [min]:                          6.453
 Wall time for (T) corrections [min]:                       0.003
 Total wall time for CCSD(T) [min]:                         0.152
 
 Total (T) correlation energy contribution [au]:           -0.005639081477
 Total (T) correlation energy+0.5 MP2 correction [au]:     -0.005669361874
 CCSD(T) correlation energy [au]:                          -0.221752147284
 Total CCSD(T) energy [au]:                               -56.426479782045
 CCSD(T) correlation energy + MP2 corrections [au]:        -0.221812708078
 Total LNO-CCSD(T) energy with MP2 corrections [au]:      -56.426540342838
 
 ======================================================================
 ======================================================================
 
 ************************ 2026-02-26 21:29:45 *************************
                      Normal termination of mrcc.
 **********************************************************************
