 **********************************************************************
                          MRCC program system
 **********************************************************************
 
                              Written by
     Mihaly Kallay, Peter R. Nagy, David Mester, Laszlo Gyevi-Nagy,
        Jozsef Csoka, P. Bernat Szabo, Zoltan Rolik, Gyula Samu,
     Jozsef Csontos, Bence Hegely, Adam Ganyecz, Istvan Ladjanszki,
       Lorant Szegedy, Bence Ladoczki, Klara Petrov, Mate Farkas,
                    Pal D. Mezei, and Reka A. Horvath
 
        Department of Physical Chemistry and Materials Science
            Budapest University of Technology and Economics
                  Budapest P.O.Box 91, H-1521 Hungary
 
                              www.mrcc.hu
 
                     Release date: August 28, 2023

 ************************ 2026-02-26 23:13:41 *************************
 Executing minp...

 Reading input from MINP...
 
 Input file:
 
charge=0
mult=1
calc=LNO-CCSD(T)
basis=aug-cc-pVDZ
symm=off
verbosity=3
unit=angs
scfalg=locfit1
scfmaxit=200
scftol=8
basis_sm=def2-SVP
usedisk=0
aocd=extra
chtol=1d-6
iesttol=0.001
scfiguess=small
lcorthr=vtight
mem=46GB
ghost=serialno
1-8

geom=xyz
12

N      3.60995473454    1.52057191074    4.08577558721
H      4.42722968319    1.16893531034    4.59786809656
H      3.96163147006    2.03264798552    3.26841604077
H      3.09781293566    0.70333789254    3.73416418411
N      4.08580437245    3.60992628524    6.65101993408
H      3.73412022664    3.09785482065    5.83367042895
H      4.59792989480    4.42715858900    6.29942160276
H      3.26851213636    3.96156461954    7.16312088514
N      4.08580437245    8.74042628524    6.65101993408
H      3.73412022664    8.22835482065    5.83367042895
H      4.59792989480    9.55765858900    6.29942160276
H      3.26851213636    9.09206461954    7.16312088514
 
 
 Checking keyword combinations...
 
 Keywords:
 
 active=none
 agrid=ld0006-ld0590
 agrid_pssp=ld0006-ld0194
 agrid_pssp_sm=ld0006-ld0074
 basis=aug-cc-pvdz
 basis_sm=def2-svp
 basopt=off
 bfbasis=none
 bfgsmem=10
 bfgstol=1.0d-3
 boysalg=jacobi
 bpcompo=0.985
 bpcompv=0.98
 bpdfo=0.985
 bpocc=0.99999d0
 bppdo=0.999d0
 bppdv=0.98
 bpedo=0.99999d0
 bpedv=0.995d0
 calc=ccsd(t)
 ccmaxit=50
 ccprog=ccsd
 ccsdalg=dfdirect
 ccsdmkl=seq
 ccsdrest=off
 ccsdthreads=2
 cctol=5
 charge=0
 cialg=direct
 ciguess=off
 cmpgrp=auto
 comprest=off
 coord_sys=ric
 core=frozen
 corembed=off
 csapprox=off
 cvs=off
 dboc=off
 delocsomofact=
 dendec=cholesky
 dens=0
 denscorr=0
 dfalg=lineq
 dfbasis_cab=none
 dfbasis_cor=auto
 dfbasis_scf=auto
 dfbasis_scf_sm=auto
 dfintran=drpa
 dft=off
 dhexc=adc(2)
 diag=david
 docc=
 domrad=10.d0
 drpaalg=auto
 dual=off
 dual_df=off
 ecp=auto
 edisp=off
 edisp_embed=off
 embed=off
 epairestfact=off
 epairscale=1.d0
 etemp=300
 epert=none
 eps=
 espcharge=off
 excrad=1.0
 excrad_fin=0.100000000D-02
 fitting=coulomb
 fmm=off
 fmmord=8
 fnonorb=
 freq=off
 gamma=1.d0
 gauss=spher
 geom=xyz
 gopt=off
 ghost=serialno
 gtol=7
 grdens=off
 grid=auto
 grid_sm=auto
 gridbatch_cos=2000
 grtol=10
 guido_ct=off
 hamilton=dc
 iface=none
 intalg=auto
 ip_ea=off
 itol=12
 laptol=1.d-3
 lccoporder=lccfirst
 lcorthr=vtight
 lccrest=off
 ldfgrad_tol=8
 lmp2dens=on
 lnoepso=1e-6
 lnoepsv=1e-7
 localcc=2021
 localcorrsymm=off
 locintrf=direct
 mact=
 maxact=off
 maxdim=200
 maxex=0
 maxmicroit=100
 mcscfiguess=hf
 mem=46gb
 mmprog=
 molden=on
 mpitasks=1
 mulmet=3
 mult=1
 nab=off
 nacto=0
 nactv=0
 naf_amp=3.16d-3
 naf_cor=1e-3
 naf_f12=off
 naf_scf=off
 nafalg=albe
 nafdens=off
 naftyp=jpq
 nchol=auto
 ndeps=1e-3
 nstate=1
 nsing=0
 nto=off
 ntrip=0
 num_grad=off
 occ=
 occri=off
 oniom=off
 oniom_eechg=off
 oniom_pcm=off
 oniom_qcorr=off
 optalg=
 optmaxit=50
 optetol=1e-6
 optex=0
 optgtol=1e-4
 optstol=1e-3
 orblocc=off
 orbloce=off
 orbloco=boys
 orblocv=pao
 orblocguess=cholesky
 osveps=-1.d0
 ovirt=off
 ovltol=1e-7
 ovosnorb=80.0
 pao_subsys_tol=1e-3
 pcm=off
 popul=off
 pressure=100000
 pssp=off
 ptfreq=0.0
 ptthreads=2
 qmreg=
 qmmm=off
 qro=off
 qscf=off
 redcost_exc=off
 redcost_tddft=0.985d0
 refdet=none
 rest=0
 rgrid=log3
 rism=off
 rohfcore=standard
 rohftype=semicanonical
 scfalg=locfit1
 scf_conv=auto
 scfdamp=0.0d0
 scfdamp_mode=off
 scfdamp_end=200
 scfdamp_dampstep=0.d0
 scfdamp_dtol=0.0d0
 scfdamp_maxfact=0.0d0
 scfdamp_minfact=0.0d0
 scfdiis=on
 scfdiis_dtol=0.0d0
 scfdiis_end=200
 scfdiis_start=2
 scfdiis_step=1
 scfdiis_watch=off
 scfdiis_wrange=10
 scfdiis_wlimit=5
 scfdiis_delmax=2
 scfdtol=9
 scfext=10
 scfguessdens=
 scfiguess=small
 scfloc=pm
 scflshift=0.20
 scflshift_end=8
 scflshift_dtol=0.0
 scflshift_gaptol=0.20
 scfmaxit=200
 scftype=
 scftol=8
 scspe=1.d0
 scsph=1.d0
 scsps=1.2d0
 scsps_t=1.2d0
 scspt=0.33333333333333
 scspt_t=0.33333333333333
 scspv=1.d0
 spairtol=-1.d0
 sqmprog=
 subminp=top
 symm=0
 talg=lapl
 temp=298.15
 test=off
 theodore=off
 tlmo=0.999
 tpao=0.94
 tprint=off
 uncontract=off
 unit=angs
 usedisk=0
 verbosity=3
 wpairtol=1.d-6
 
 Calculating integrals for small-basis SCF...

 ************************ 2026-02-26 23:13:42 *************************
 Executing integ...

 Allocation of 46.0 Gbytes of memory...
 
 
 Number of atoms:                 12
 Charge:                           0
 Number of electrons:             10
 Number of core electrons:         2
 Spin multiplicity:                1
 
                 Cartesian coordinates [bohr]      Atomic mass [AMU]  Z
   1  N     6.82182577    2.87346447    7.72099687     0.000000       0
   2  H     8.36625160    2.20896759    8.68871146     0.000000       0
   3  H     7.48639849    3.84114800    6.17641118     0.000000       0
   4  H     5.85401804    1.32911599    7.05654762     0.000000       0
   5  N     7.72105127    6.82177201   12.56860613     0.000000       0
   6  H     7.05646455    5.85409719   11.02403942     0.000000       0
   7  H     8.68882825    8.36611725   11.90418158     0.000000       0
   8  H     6.17659278    7.48627216   13.53633668     0.000000       0
   9  N     7.72105127   16.51701190   12.56860613    14.003074       7
  10  H     7.05646455   15.54933707   11.02403942     1.007825       1
  11  H     8.68882825   18.06135713   11.90418158     1.007825       1
  12  H     6.17659278   17.18151205   13.53633668     1.007825       1
 
 This molecule is an asymmetric top.
 
 Point group: C1  
 Computational point group: C1  
 
 Cartesian coordinates in standard orientation [bohr]
   1  N   -12.49071372   -1.38016716    0.22894358
   2  H   -12.83743013   -0.24013201   -1.30186873
   3  H   -11.90233523   -3.09693988   -0.45685191
   4  H   -14.18774053   -1.67139432    1.12250029
   5  N    -7.44855104    2.37628295   -0.37332926
   6  H    -8.78883113    1.09871152    0.20564996
   7  H    -6.07498069    1.37942145   -1.31281111
   8  H    -6.63073928    3.11228957    1.22444828
   9  N     1.94712528    0.00569377   -0.05828973
  10  H     0.60684519   -1.27187766    0.52068949
  11  H     3.32069563   -0.99116773   -0.99777157
  12  H     2.76493704    0.74170039    1.53948781
 
 Nuclear repulsion energy [au]:         11.785807877699
 
Warning: for H atoms in the case of dfbasis_scf=auto the AO basis is set as dfbasis_scf instead of def2-qzvp(pd)-ri-jk because the AO basis is larger. Set the dfbasis_scf=def2-qzvp(pd)-ri-jk in MINP if that is desired.
 
 
 Basis set information:
 
 Maximum angular momentum: g
 Maximum number of contracted Gaussians:   10
 Maximum number of primitive Gaussians:    14
 Spherical harmonic GTOs are used.
 
 
 Conventional basis set:
 
   1  N  def2-svp [ 7s 4p 1d | 3s 2p 1d ]
   2  H  def2-svp [ 4s 1p | 2s 1p ]
   3  H  def2-svp [ 4s 1p | 2s 1p ]
   4  H  def2-svp [ 4s 1p | 2s 1p ]
   5  N  def2-svp [ 7s 4p 1d | 3s 2p 1d ]
   6  H  def2-svp [ 4s 1p | 2s 1p ]
   7  H  def2-svp [ 4s 1p | 2s 1p ]
   8  H  def2-svp [ 4s 1p | 2s 1p ]
   9  N  def2-svp [ 7s 4p 1d | 3s 2p 1d ]
  10  H  def2-svp [ 4s 1p | 2s 1p ]
  11  H  def2-svp [ 4s 1p | 2s 1p ]
  12  H  def2-svp [ 4s 1p | 2s 1p ]
 
 Basis functions:
            1             2             3             4             5             6             7             8             9            10
    0    1N1s          1N2s          1N3s          1N1pz         1N1py         1N1px         1N2pz         1N2py         1N2px         1N1d-2    
    1    1N1d-1        1N1d0         1N1d+1        1N1d+2        2H1s          2H2s          2H1pz         2H1py         2H1px         3H1s      
    2    3H2s          3H1pz         3H1py         3H1px         4H1s          4H2s          4H1pz         4H1py         4H1px         5N1s      
    3    5N2s          5N3s          5N1pz         5N1py         5N1px         5N2pz         5N2py         5N2px         5N1d-2        5N1d-1    
    4    5N1d0         5N1d+1        5N1d+2        6H1s          6H2s          6H1pz         6H1py         6H1px         7H1s          7H2s      
    5    7H1pz         7H1py         7H1px         8H1s          8H2s          8H1pz         8H1py         8H1px         9N1s          9N2s      
    6    9N3s          9N1pz         9N1py         9N1px         9N2pz         9N2py         9N2px         9N1d-2        9N1d-1        9N1d0     
    7    9N1d+1        9N1d+2       10H1s         10H2s         10H1pz        10H1py        10H1px        11H1s         11H2s         11H1pz     
    8   11H1py        11H1px        12H1s         12H2s         12H1pz        12H1py        12H1px     
 
 Maximum number of basis functions per shell:    6
 Total number of basis functions:     87
 
 
 Fitting basis set for the SCF calculation:
 
   1  N  def2-qzvpp-ri-jk [ 14s 10p 6d 2f 1g | 10s 8p 4d 2f 1g ]
   2  H  def2-qzvpp [ 7s 3p 2d 1f | 4s 3p 2d 1f ]
   3  H  def2-qzvpp [ 7s 3p 2d 1f | 4s 3p 2d 1f ]
   4  H  def2-qzvpp [ 7s 3p 2d 1f | 4s 3p 2d 1f ]
   5  N  def2-qzvpp-ri-jk [ 14s 10p 6d 2f 1g | 10s 8p 4d 2f 1g ]
   6  H  def2-qzvpp [ 7s 3p 2d 1f | 4s 3p 2d 1f ]
   7  H  def2-qzvpp [ 7s 3p 2d 1f | 4s 3p 2d 1f ]
   8  H  def2-qzvpp [ 7s 3p 2d 1f | 4s 3p 2d 1f ]
   9  N  def2-qzvpp-ri-jk [ 14s 10p 6d 2f 1g | 10s 8p 4d 2f 1g ]
  10  H  def2-qzvpp [ 7s 3p 2d 1f | 4s 3p 2d 1f ]
  11  H  def2-qzvpp [ 7s 3p 2d 1f | 4s 3p 2d 1f ]
  12  H  def2-qzvpp [ 7s 3p 2d 1f | 4s 3p 2d 1f ]
 
 Basis functions:
            1             2             3             4             5             6             7             8             9            10
    0    1N1s          1N2s          1N3s          1N4s          1N5s          1N6s          1N7s          1N8s          1N9s          1N10s     
    1    1N1pz         1N1py         1N1px         1N2pz         1N2py         1N2px         1N3pz         1N3py         1N3px         1N4pz     
    2    1N4py         1N4px         1N5pz         1N5py         1N5px         1N6pz         1N6py         1N6px         1N7pz         1N7py     
    3    1N7px         1N8pz         1N8py         1N8px         1N1d-2        1N1d-1        1N1d0         1N1d+1        1N1d+2        1N2d-2    
    4    1N2d-1        1N2d0         1N2d+1        1N2d+2        1N3d-2        1N3d-1        1N3d0         1N3d+1        1N3d+2        1N4d-2    
    5    1N4d-1        1N4d0         1N4d+1        1N4d+2        1N1f-3        1N1f-2        1N1f-1        1N1f0         1N1f+1        1N1f+2    
    6    1N1f+3        1N2f-3        1N2f-2        1N2f-1        1N2f0         1N2f+1        1N2f+2        1N2f+3        1N1g-4        1N1g-3    
    7    1N1g-2        1N1g-1        1N1g0         1N1g+1        1N1g+2        1N1g+3        1N1g+4        2H1s          2H2s          2H3s      
    8    2H4s          2H1pz         2H1py         2H1px         2H2pz         2H2py         2H2px         2H3pz         2H3py         2H3px     
    9    2H1d-2        2H1d-1        2H1d0         2H1d+1        2H1d+2        2H2d-2        2H2d-1        2H2d0         2H2d+1        2H2d+2    
   10    2H1f-3        2H1f-2        2H1f-1        2H1f0         2H1f+1        2H1f+2        2H1f+3        3H1s          3H2s          3H3s      
   11    3H4s          3H1pz         3H1py         3H1px         3H2pz         3H2py         3H2px         3H3pz         3H3py         3H3px     
   12    3H1d-2        3H1d-1        3H1d0         3H1d+1        3H1d+2        3H2d-2        3H2d-1        3H2d0         3H2d+1        3H2d+2    
   13    3H1f-3        3H1f-2        3H1f-1        3H1f0         3H1f+1        3H1f+2        3H1f+3        4H1s          4H2s          4H3s      
   14    4H4s          4H1pz         4H1py         4H1px         4H2pz         4H2py         4H2px         4H3pz         4H3py         4H3px     
   15    4H1d-2        4H1d-1        4H1d0         4H1d+1        4H1d+2        4H2d-2        4H2d-1        4H2d0         4H2d+1        4H2d+2    
   16    4H1f-3        4H1f-2        4H1f-1        4H1f0         4H1f+1        4H1f+2        4H1f+3        5N1s          5N2s          5N3s      
   17    5N4s          5N5s          5N6s          5N7s          5N8s          5N9s          5N10s         5N1pz         5N1py         5N1px     
   18    5N2pz         5N2py         5N2px         5N3pz         5N3py         5N3px         5N4pz         5N4py         5N4px         5N5pz     
   19    5N5py         5N5px         5N6pz         5N6py         5N6px         5N7pz         5N7py         5N7px         5N8pz         5N8py     
   20    5N8px         5N1d-2        5N1d-1        5N1d0         5N1d+1        5N1d+2        5N2d-2        5N2d-1        5N2d0         5N2d+1    
   21    5N2d+2        5N3d-2        5N3d-1        5N3d0         5N3d+1        5N3d+2        5N4d-2        5N4d-1        5N4d0         5N4d+1    
   22    5N4d+2        5N1f-3        5N1f-2        5N1f-1        5N1f0         5N1f+1        5N1f+2        5N1f+3        5N2f-3        5N2f-2    
   23    5N2f-1        5N2f0         5N2f+1        5N2f+2        5N2f+3        5N1g-4        5N1g-3        5N1g-2        5N1g-1        5N1g0     
   24    5N1g+1        5N1g+2        5N1g+3        5N1g+4        6H1s          6H2s          6H3s          6H4s          6H1pz         6H1py     
   25    6H1px         6H2pz         6H2py         6H2px         6H3pz         6H3py         6H3px         6H1d-2        6H1d-1        6H1d0     
   26    6H1d+1        6H1d+2        6H2d-2        6H2d-1        6H2d0         6H2d+1        6H2d+2        6H1f-3        6H1f-2        6H1f-1    
   27    6H1f0         6H1f+1        6H1f+2        6H1f+3        7H1s          7H2s          7H3s          7H4s          7H1pz         7H1py     
   28    7H1px         7H2pz         7H2py         7H2px         7H3pz         7H3py         7H3px         7H1d-2        7H1d-1        7H1d0     
   29    7H1d+1        7H1d+2        7H2d-2        7H2d-1        7H2d0         7H2d+1        7H2d+2        7H1f-3        7H1f-2        7H1f-1    
   30    7H1f0         7H1f+1        7H1f+2        7H1f+3        8H1s          8H2s          8H3s          8H4s          8H1pz         8H1py     
   31    8H1px         8H2pz         8H2py         8H2px         8H3pz         8H3py         8H3px         8H1d-2        8H1d-1        8H1d0     
   32    8H1d+1        8H1d+2        8H2d-2        8H2d-1        8H2d0         8H2d+1        8H2d+2        8H1f-3        8H1f-2        8H1f-1    
   33    8H1f0         8H1f+1        8H1f+2        8H1f+3        9N1s          9N2s          9N3s          9N4s          9N5s          9N6s      
   34    9N7s          9N8s          9N9s          9N10s         9N1pz         9N1py         9N1px         9N2pz         9N2py         9N2px     
   35    9N3pz         9N3py         9N3px         9N4pz         9N4py         9N4px         9N5pz         9N5py         9N5px         9N6pz     
   36    9N6py         9N6px         9N7pz         9N7py         9N7px         9N8pz         9N8py         9N8px         9N1d-2        9N1d-1    
   37    9N1d0         9N1d+1        9N1d+2        9N2d-2        9N2d-1        9N2d0         9N2d+1        9N2d+2        9N3d-2        9N3d-1    
   38    9N3d0         9N3d+1        9N3d+2        9N4d-2        9N4d-1        9N4d0         9N4d+1        9N4d+2        9N1f-3        9N1f-2    
   39    9N1f-1        9N1f0         9N1f+1        9N1f+2        9N1f+3        9N2f-3        9N2f-2        9N2f-1        9N2f0         9N2f+1    
   40    9N2f+2        9N2f+3        9N1g-4        9N1g-3        9N1g-2        9N1g-1        9N1g0         9N1g+1        9N1g+2        9N1g+3    
   41    9N1g+4       10H1s         10H2s         10H3s         10H4s         10H1pz        10H1py        10H1px        10H2pz        10H2py     
   42   10H2px        10H3pz        10H3py        10H3px        10H1d-2       10H1d-1       10H1d0        10H1d+1       10H1d+2       10H2d-2    
   43   10H2d-1       10H2d0        10H2d+1       10H2d+2       10H1f-3       10H1f-2       10H1f-1       10H1f0        10H1f+1       10H1f+2    
   44   10H1f+3       11H1s         11H2s         11H3s         11H4s         11H1pz        11H1py        11H1px        11H2pz        11H2py     
   45   11H2px        11H3pz        11H3py        11H3px        11H1d-2       11H1d-1       11H1d0        11H1d+1       11H1d+2       11H2d-2    
   46   11H2d-1       11H2d0        11H2d+1       11H2d+2       11H1f-3       11H1f-2       11H1f-1       11H1f0        11H1f+1       11H1f+2    
   47   11H1f+3       12H1s         12H2s         12H3s         12H4s         12H1pz        12H1py        12H1px        12H2pz        12H2py     
   48   12H2px        12H3pz        12H3py        12H3px        12H1d-2       12H1d-1       12H1d0        12H1d+1       12H1d+2       12H2d-2    
   49   12H2d-1       12H2d0        12H2d+1       12H2d+2       12H1f-3       12H1f-2       12H1f-1       12H1f0        12H1f+1       12H1f+2    
   50   12H1f+3    
 
 Maximum number of basis functions per shell:   24
 Total number of basis functions:    501
 
 
 Initializing the SAD routines for the initial guess...
 Checking the files required for the initial guess...
 Atomic density files have been found for the atoms with the following serial numbers:
  
 Atomic density files have not been found for the atoms with the following serial numbers:
  9 10 11 12
 Generating SCFDENSITIES.N.def2-svp.0
 Generating SCFDENSITIES.H.def2-svp.0
 CPU time [min]:     0.219                   Wall time [min]:     0.151
 
 Character table for point group C1:
 
          E  
    A     1
 
 Number of basis functions per irrep:
    A      87
 
 
 Calculation of overlap integrals...
 CPU time [min]:     0.223                   Wall time [min]:     0.152
 
 Calculation of the square root of the overlap matrix...
 Minimum eigenvalue of the overlap matrix: 0.236491E-01
 CPU time [min]:     0.238                   Wall time [min]:     0.152
 
 Calculation of kinetic energy integrals...
 CPU time [min]:     0.239                   Wall time [min]:     0.152
 Calculation of dipole moment integrals...
 CPU time [min]:     0.240                   Wall time [min]:     0.152
 Calculation of nuclear attraction integrals...
 CPU time [min]:     0.241                   Wall time [min]:     0.152
 
 Calculation of prescreening integrals...
 CPU time [min]:     0.260                   Wall time [min]:     0.153
 
 Calculation of two-center Coulomb integrals...
   1% done.
  13% done.
  24% done.
  35% done.
  47% done.
  60% done.
  72% done.
  86% done.
  97% done.
 100% done.
 CPU time [min]:     0.272                   Wall time [min]:     0.153
 
 Cholesky decomposition of the two-center matrix...
 Reciprocal of the condition number:  0.859433E-05
 CPU time [min]:     0.299                   Wall time [min]:     0.153
 
 
 Running small-basis SCF...

 ************************ 2026-02-26 23:13:51 *************************
 Executing scf...

 @scfsetup: integrals calculated directly
            mrcc/integ direct run
 @scfsetup: calculating on full matrices
            not using symmetry adapted basis
 @scfsetup: diis switched on
 @scfsetup: number of steps to extrapolate from  10
 @scfsetup: tolerance in energy deviation    0.100000E-07
            tolerance in density deviation    0.100000E-08
 @scfsetup: maximum number of iterations: 200
 @scfsetup: restricted closed shell hf calc
 @scfsetup: starting scf from superposition of atomic densities
 @scfsetup: occupation set:
            from initial orbitals
 @scfsetup: Parameter-set for SCF acceleration: normal
 @scfsetup: diis runs from iteration:   2
 @scfsetup: diis runs to iteration: 200
 @scfsetup: diis runs in every iteration
 @scfsetup: diiswatch is disabled                   
 @scfsetup: diis dtol criteria to switch on:      0.0000E+00
           (or the iteration number below is reached)
 @scfsetup: static damping scheme
            iteration step criteria to turn damping off: 3
 @scfsetup: dynamic level shifting
            tolarance in HOMO-LUMO gap:  0.200
            tolarance in density deviation:     0.0000E+00
            iteration step criteria to turn level shifting off: 8
 Allocation of 46.0 Gbytes of memory...
 ======================================================================
 ITERATION STEP   1
 CPU time [min]:     0.039                   Wall time [min]:     0.008
 

 SCF control                  : initial
 Damping factor/level shift   : 0.000/0.200
 DIIS [start/end/frequency]   :   2 /200 /  1

 Constructing Fock-matrix...
 
 Pipek-Mezey localization...
 Step  Convergence
   1   0.843738572939
   2   0.008995602250
   3   0.000057671447
   4   0.000000147424
   5   0.000000000510
 CPU time [min]:     0.064                   Wall time [min]:     0.009
 
 Constructing local fitting domains...
 Maximum number of atoms in fitting domains:    4
 Average number of atoms in fitting domains:    4.0
 
 First step of Coulomb + first step of exchange...
 Exchange contribution is evaluated for MOs 1 to 5.
   1% done.
  14% done.
  25% done.
  37% done.
  49% done.
  60% done.
  72% done.
  83% done.
 100% done.
 Fitting and assembly step of exchange...
 CPU time [min]:     0.148                   Wall time [min]:     0.010
 
 Second step of Coulomb...
   1% done.
  14% done.
  25% done.
  37% done.
  49% done.
  60% done.
  72% done.
  83% done.
 100% done.
 CPU time [min]:     0.172                   Wall time [min]:     0.011
 
 Gradient norm:      2.3664E+00
 RMS of [F,P]:                                         0.02509568161003
 RMS of difference density:                            0.00907626745763
 Gap [au]:  0.66360373
 ALPHA OCC:   5
 BETA  OCC:   5
 
 ***HARTREE-FOCK ENERGY IN STEP   1 IS        -55.8598424449295337 [AU]
 ======================================================================
 ITERATION STEP   2
 CPU time [min]:     0.184                   Wall time [min]:     0.011
 

 SCF control                  : diis
 Damping factor/level shift   : 0.000/0.000
 DIIS [start/end/frequency]   :   2 /200 /  1

 Constructing Fock-matrix...
 
 Pipek-Mezey localization...
 Step  Convergence
   1   0.020411989830
   2   0.020387633610
   3   0.000002793075
   4   0.000000003272
 CPU time [min]:     0.208                   Wall time [min]:     0.011
 
 Constructing local fitting domains...
 Maximum number of atoms in fitting domains:    4
 Average number of atoms in fitting domains:    4.0
 
 First step of Coulomb + first step of exchange...
 Exchange contribution is evaluated for MOs 1 to 5.
   1% done.
  14% done.
  25% done.
  37% done.
  49% done.
  60% done.
  72% done.
  83% done.
 100% done.
 Fitting and assembly step of exchange...
 CPU time [min]:     0.280                   Wall time [min]:     0.012
 
 Second step of Coulomb...
   1% done.
  14% done.
  25% done.
  37% done.
  49% done.
  60% done.
  72% done.
  83% done.
 100% done.
 CPU time [min]:     0.304                   Wall time [min]:     0.013
 
 Gradient norm:      3.1900E-01
 DIIS is running in this iteration step.
 RMS of [F,P]:                                         0.00536384082759
 RMS of difference density:                            0.00420713923123
 Gap [au]:  0.46532186
 ALPHA OCC:   5
 BETA  OCC:   5
 
 ***HARTREE-FOCK ENERGY IN STEP   2 IS        -56.1230729675146520 [AU]
 
 Step comparison  Energy Drift [au]  DIIS error drift  Gradient drift
        1            2.6323E-01         1.9732E-02       2.0474E+00
        2            5.6123E+01         1.0000E-09       2.0474E+00
 ======================================================================
 ITERATION STEP   3
 CPU time [min]:     0.319                   Wall time [min]:     0.013
 

 SCF control                  : diis
 Damping factor/level shift   : 0.000/0.000
 DIIS [start/end/frequency]   :   2 /200 /  1

 Constructing Fock-matrix...
 
 Pipek-Mezey localization...
 Step  Convergence
   1   0.020183141652
   2   0.020324998019
   3   0.000002154731
   4   0.000000000208
 CPU time [min]:     0.342                   Wall time [min]:     0.013
 
 Constructing local fitting domains...
 Local fitting domains are unchanged.
 
 First step of Coulomb + first step of exchange...
 Exchange contribution is evaluated for MOs 1 to 5.
   1% done.
  14% done.
  25% done.
  37% done.
  49% done.
  60% done.
  72% done.
  83% done.
 100% done.
 Fitting and assembly step of exchange...
 CPU time [min]:     0.412                   Wall time [min]:     0.015
 
 Second step of Coulomb...
   1% done.
  14% done.
  25% done.
  37% done.
  49% done.
  60% done.
  72% done.
  83% done.
 100% done.
 CPU time [min]:     0.435                   Wall time [min]:     0.015
 
 Gradient norm:      1.2636E-01
 DIIS is running in this iteration step.
 RMS of [F,P]:                                         0.00255308231418
 RMS of difference density:                            0.00127796346345
 Gap [au]:  0.52756235
 ALPHA OCC:   5
 BETA  OCC:   5
 
 ***HARTREE-FOCK ENERGY IN STEP   3 IS        -56.1423578298787334 [AU]
 
 Step comparison  Energy Drift [au]  DIIS error drift  Gradient drift
        2            1.9285E-02         2.8108E-03       1.9263E-01
 ======================================================================
 ITERATION STEP   4
 CPU time [min]:     0.451                   Wall time [min]:     0.015
 

 SCF control                  : diis
 Damping factor/level shift   : 0.000/0.000
 DIIS [start/end/frequency]   :   2 /200 /  1

 Constructing Fock-matrix...
 
 Pipek-Mezey localization...
 Step  Convergence
   1   0.019962555501
   2   0.020304447880
   3   0.000002045865
   4   0.000000000189
 CPU time [min]:     0.474                   Wall time [min]:     0.016
 
 Constructing local fitting domains...
 Local fitting domains are unchanged.
 
 First step of Coulomb + first step of exchange...
 Exchange contribution is evaluated for MOs 1 to 5.
   1% done.
  14% done.
  25% done.
  37% done.
  49% done.
  60% done.
  72% done.
  83% done.
 100% done.
 Fitting and assembly step of exchange...
 CPU time [min]:     0.543                   Wall time [min]:     0.017
 
 Second step of Coulomb...
   1% done.
  14% done.
  25% done.
  37% done.
  49% done.
  60% done.
  72% done.
  83% done.
 100% done.
 CPU time [min]:     0.566                   Wall time [min]:     0.017
 
 Gradient norm:      2.4220E-02
 DIIS is running in this iteration step.
 RMS of [F,P]:                                         0.00031610606238
 RMS of difference density:                            0.00031923418740
 Gap [au]:  0.51964907
 ALPHA OCC:   5
 BETA  OCC:   5
 
 ***HARTREE-FOCK ENERGY IN STEP   4 IS        -56.1476072348292305 [AU]
 
 Step comparison  Energy Drift [au]  DIIS error drift  Gradient drift
        3            5.2494E-03         2.2370E-03       1.0214E-01
 ======================================================================
 ITERATION STEP   5
 CPU time [min]:     0.581                   Wall time [min]:     0.017
 

 SCF control                  : diis
 Damping factor/level shift   : 0.000/0.000
 DIIS [start/end/frequency]   :   2 /200 /  1

 Constructing Fock-matrix...
 
 Pipek-Mezey localization...
 Step  Convergence
   1   0.029926438875
   2   0.030077912738
   3   0.000056576537
   4   0.000000347705
   5   0.000000000706
 CPU time [min]:     0.604                   Wall time [min]:     0.018
 
 Constructing local fitting domains...
 Local fitting domains are unchanged.
 
 First step of Coulomb + first step of exchange...
 Exchange contribution is evaluated for MOs 1 to 5.
   1% done.
  14% done.
  25% done.
  37% done.
  49% done.
  60% done.
  72% done.
  83% done.
 100% done.
 Fitting and assembly step of exchange...
 CPU time [min]:     0.674                   Wall time [min]:     0.019
 
 Second step of Coulomb...
   1% done.
  14% done.
  25% done.
  37% done.
  49% done.
  60% done.
  72% done.
  83% done.
 100% done.
 CPU time [min]:     0.697                   Wall time [min]:     0.019
 
 Gradient norm:      1.9847E-03
 DIIS is running in this iteration step.
 RMS of [F,P]:                                         0.00005238515233
 RMS of difference density:                            0.00004382184807
 Gap [au]:  0.51988841
 ALPHA OCC:   5
 BETA  OCC:   5
 
 ***HARTREE-FOCK ENERGY IN STEP   5 IS        -56.1477679446958362 [AU]
 
 Step comparison  Energy Drift [au]  DIIS error drift  Gradient drift
        4            1.6071E-04         2.6372E-04       2.2235E-02
 ======================================================================
 ITERATION STEP   6
 CPU time [min]:     0.711                   Wall time [min]:     0.020
 

 SCF control                  : diis
 Damping factor/level shift   : 0.000/0.000
 DIIS [start/end/frequency]   :   2 /200 /  1

 Constructing Fock-matrix...
 
 Pipek-Mezey localization...
 Step  Convergence
   1   0.045411175358
   2   0.044447079665
   3   0.000029724482
   4   0.000000096140
   5   0.000000000207
   6   0.000000000000
 CPU time [min]:     0.734                   Wall time [min]:     0.020
 
 Constructing local fitting domains...
 Local fitting domains are unchanged.
 
 First step of Coulomb + first step of exchange...
 Exchange contribution is evaluated for MOs 1 to 5.
   1% done.
  14% done.
  25% done.
  37% done.
  49% done.
  60% done.
  72% done.
  83% done.
 100% done.
 Fitting and assembly step of exchange...
 CPU time [min]:     0.803                   Wall time [min]:     0.021
 
 Second step of Coulomb...
   1% done.
  14% done.
  25% done.
  37% done.
  49% done.
  60% done.
  72% done.
  83% done.
 100% done.
 CPU time [min]:     0.827                   Wall time [min]:     0.021
 
 Gradient norm:      3.1594E-04
 DIIS is running in this iteration step.
 RMS of [F,P]:                                         0.00000546340742
 RMS of difference density:                            0.00000409562475
 Gap [au]:  0.51994106
 ALPHA OCC:   5
 BETA  OCC:   5
 
 ***HARTREE-FOCK ENERGY IN STEP   6 IS        -56.1477712297070610 [AU]
 
 Step comparison  Energy Drift [au]  DIIS error drift  Gradient drift
        5            3.2850E-06         4.6922E-05       1.6688E-03
 ======================================================================
 ITERATION STEP   7
 CPU time [min]:     0.841                   Wall time [min]:     0.022
 

 SCF control                  : diis
 Damping factor/level shift   : 0.000/0.000
 DIIS [start/end/frequency]   :   2 /200 /  1

 Constructing Fock-matrix...
 
 Pipek-Mezey localization...
 Step  Convergence
   1   0.045296324435
   2   0.044453881691
   3   0.000035019483
   4   0.000000112300
   5   0.000000000239
   6   0.000000000001
 CPU time [min]:     0.864                   Wall time [min]:     0.022
 
 Constructing local fitting domains...
 Local fitting domains are unchanged.
 
 First step of Coulomb + first step of exchange...
 Exchange contribution is evaluated for MOs 1 to 5.
   1% done.
  14% done.
  25% done.
  37% done.
  49% done.
  60% done.
  72% done.
  83% done.
 100% done.
 Fitting and assembly step of exchange...
 CPU time [min]:     0.934                   Wall time [min]:     0.023
 
 Second step of Coulomb...
   1% done.
  14% done.
  25% done.
  37% done.
  49% done.
  60% done.
  72% done.
  83% done.
 100% done.
 CPU time [min]:     0.957                   Wall time [min]:     0.024
 
 Gradient norm:      7.8527E-05
 DIIS is running in this iteration step.
 RMS of [F,P]:                                         0.00000088593565
 RMS of difference density:                            0.00000093420528
 Gap [au]:  0.51993041
 ALPHA OCC:   5
 BETA  OCC:   5
 
 ***HARTREE-FOCK ENERGY IN STEP   7 IS        -56.1477712654962673 [AU]
 
 Step comparison  Energy Drift [au]  DIIS error drift  Gradient drift
        6            3.5789E-08         4.5775E-06       2.3742E-04
 ======================================================================
 ITERATION STEP   8
 CPU time [min]:     0.972                   Wall time [min]:     0.024
 

 SCF control                  : diis
 Damping factor/level shift   : 0.000/0.000
 DIIS [start/end/frequency]   :   2 /200 /  1

 Constructing Fock-matrix...
 
 Pipek-Mezey localization...
 Step  Convergence
   1   0.039895225405
   2   0.040733676869
   3   0.000070291757
   4   0.000000368316
   5   0.000000000759
   6   0.000000000002
   7   0.000000000000
 CPU time [min]:     0.995                   Wall time [min]:     0.024
 
 Constructing local fitting domains...
 Local fitting domains are unchanged.
 
 First step of Coulomb + first step of exchange...
 Exchange contribution is evaluated for MOs 1 to 5.
   1% done.
  14% done.
  25% done.
  37% done.
  49% done.
  60% done.
  72% done.
  83% done.
 100% done.
 Fitting and assembly step of exchange...
 CPU time [min]:     1.065                   Wall time [min]:     0.025
 
 Second step of Coulomb...
   1% done.
  14% done.
  25% done.
  37% done.
  49% done.
  60% done.
  72% done.
  83% done.
 100% done.
 CPU time [min]:     1.089                   Wall time [min]:     0.026
 
 Gradient norm:      1.0934E-05
 DIIS is running in this iteration step.
 RMS of [F,P]:                                         0.00000017661375
 RMS of difference density:                            0.00000029737258
 Gap [au]:  0.51992609
 ALPHA OCC:   5
 BETA  OCC:   5
 
 ***HARTREE-FOCK ENERGY IN STEP   8 IS        -56.1477712671179674 [AU]
 
 Step comparison  Energy Drift [au]  DIIS error drift  Gradient drift
        7            1.6217E-09         7.0932E-07       6.7593E-05
 ======================================================================
 ITERATION STEP   9
 CPU time [min]:     1.103                   Wall time [min]:     0.026
 

 SCF control                  : diis
 Damping factor/level shift   : 0.000/0.000
 DIIS [start/end/frequency]   :   2 /200 /  1

 Constructing Fock-matrix...
 
 Pipek-Mezey localization...
 Step  Convergence
   1   0.045294436276
   2   0.044525336082
   3   0.000023558640
   4   0.000000018356
   5   0.000000000113
   6   0.000000000000
 CPU time [min]:     1.126                   Wall time [min]:     0.027
 
 Constructing local fitting domains...
 Local fitting domains are unchanged.
 
 First step of Coulomb + first step of exchange...
 Exchange contribution is evaluated for MOs 1 to 5.
   1% done.
  14% done.
  25% done.
  37% done.
  49% done.
  60% done.
  72% done.
  83% done.
 100% done.
 Fitting and assembly step of exchange...
 CPU time [min]:     1.197                   Wall time [min]:     0.028
 
 Second step of Coulomb...
   1% done.
  14% done.
  25% done.
  37% done.
  49% done.
  60% done.
  72% done.
  83% done.
 100% done.
 CPU time [min]:     1.220                   Wall time [min]:     0.028
 
 Gradient norm:      2.8198E-06
 DIIS is running in this iteration step.
 RMS of [F,P]:                                         0.00000003064337
 RMS of difference density:                            0.00000008969179
 Gap [au]:  0.51992571
 ALPHA OCC:   5
 BETA  OCC:   5
 
 ***HARTREE-FOCK ENERGY IN STEP   9 IS        -56.1477712672105653 [AU]
 
 Step comparison  Energy Drift [au]  DIIS error drift  Gradient drift
        8            9.2598E-11         1.4597E-07       8.1140E-06
 ======================================================================
 ITERATION STEP  10
 CPU time [min]:     1.235                   Wall time [min]:     0.028
 

 SCF control                  : diis
 Damping factor/level shift   : 0.000/0.000
 DIIS [start/end/frequency]   :   2 /200 /  1

 Constructing Fock-matrix...
 
 Pipek-Mezey localization...
 Step  Convergence
   1   0.045641628687
   2   0.044510770711
   3   0.000030571310
   4   0.000000114465
   5   0.000000000396
   6   0.000000000004
   7   0.000000000000
 CPU time [min]:     1.258                   Wall time [min]:     0.029
 
 Constructing local fitting domains...
 Local fitting domains are unchanged.
 
 First step of Coulomb + first step of exchange...
 Exchange contribution is evaluated for MOs 1 to 5.
   1% done.
  14% done.
  25% done.
  37% done.
  49% done.
  60% done.
  72% done.
  83% done.
 100% done.
 Fitting and assembly step of exchange...
 CPU time [min]:     1.332                   Wall time [min]:     0.030
 
 Second step of Coulomb...
   1% done.
  14% done.
  25% done.
  37% done.
  49% done.
  60% done.
  72% done.
  83% done.
 100% done.
 CPU time [min]:     1.356                   Wall time [min]:     0.030
 
 Gradient norm:      6.1119E-07
 DIIS is running in this iteration step.
 RMS of [F,P]:                                         0.00000000721556
 RMS of difference density:                            0.00000002400885
 Gap [au]:  0.51992574
 ALPHA OCC:   5
 BETA  OCC:   5
 
 ***HARTREE-FOCK ENERGY IN STEP  10 IS        -56.1477712672149991 [AU]
 
 Step comparison  Energy Drift [au]  DIIS error drift  Gradient drift
        9            4.4338E-12         2.3428E-08       2.2087E-06
 ======================================================================
 ITERATION STEP  11
 CPU time [min]:     1.370                   Wall time [min]:     0.031
 

 SCF control                  : diis
 Damping factor/level shift   : 0.000/0.000
 DIIS [start/end/frequency]   :   2 /200 /  1

 Constructing Fock-matrix...
 
 Pipek-Mezey localization...
 Step  Convergence
   1   0.039895848583
   2   0.040299562252
   3   0.000063348135
   4   0.000000334022
   5   0.000000000689
   6   0.000000000001
   7   0.000000000000
 CPU time [min]:     1.394                   Wall time [min]:     0.031
 
 Constructing local fitting domains...
 Local fitting domains are unchanged.
 
 First step of Coulomb + first step of exchange...
 Exchange contribution is evaluated for MOs 1 to 5.
   1% done.
  14% done.
  25% done.
  37% done.
  49% done.
  60% done.
  72% done.
  83% done.
 100% done.
 Fitting and assembly step of exchange...
 CPU time [min]:     1.464                   Wall time [min]:     0.032
 
 Second step of Coulomb...
   1% done.
  14% done.
  25% done.
  37% done.
  49% done.
  60% done.
  72% done.
  83% done.
 100% done.
 CPU time [min]:     1.488                   Wall time [min]:     0.032
 
 Gradient norm:      4.6830E-08
 DIIS is running in this iteration step.
 RMS of [F,P]:                                         0.00000000067574
 RMS of difference density:                            0.00000000137209
 Gap [au]:  0.51992575
 ALPHA OCC:   5
 BETA  OCC:   5
 
 ***HARTREE-FOCK ENERGY IN STEP  11 IS        -56.1477712672151767 [AU]
 
 Step comparison  Energy Drift [au]  DIIS error drift  Gradient drift
       10            1.7764E-13         6.5398E-09       5.6436E-07
 ======================================================================
 ITERATION STEP  12
 CPU time [min]:     1.503                   Wall time [min]:     0.033
 

 SCF control                  : diis
 Damping factor/level shift   : 0.000/0.000
 DIIS [start/end/frequency]   :   2 /200 /  1

 Constructing Fock-matrix...
 
 Pipek-Mezey localization...
 Step  Convergence
   1   0.045386071300
   2   0.044495201338
   3   0.000017851378
   4   0.000000025804
   5   0.000000000175
   6   0.000000000000
 CPU time [min]:     1.526                   Wall time [min]:     0.033
 
 Constructing local fitting domains...
 Local fitting domains are unchanged.
 
 First step of Coulomb + first step of exchange...
 Exchange contribution is evaluated for MOs 1 to 5.
   1% done.
  14% done.
  25% done.
  37% done.
  49% done.
  60% done.
  72% done.
  83% done.
 100% done.
 Fitting and assembly step of exchange...
 CPU time [min]:     1.596                   Wall time [min]:     0.034
 
 Second step of Coulomb...
   1% done.
  14% done.
  25% done.
  37% done.
  49% done.
  60% done.
  72% done.
  83% done.
 100% done.
 CPU time [min]:     1.620                   Wall time [min]:     0.035
 
 Gradient norm:      3.3499E-09
 DIIS is running in this iteration step.
 RMS of [F,P]:                                         0.00000000005766
 RMS of difference density:                            0.00000000007803
 Gap [au]:  0.51992575
 ALPHA OCC:   5
 BETA  OCC:   5
 
 ***HARTREE-FOCK ENERGY IN STEP  12 IS        -56.1477712672151839 [AU]
 
 Step comparison  Energy Drift [au]  DIIS error drift  Gradient drift
       11            7.1054E-15         6.1808E-10       4.3480E-08
 
 The SCF iteration has converged.
 An extra iteration will be performed to calculate accurate SCF energy.
 
 ======================================================================
 ITERATION STEP  13
 CPU time [min]:     1.636                   Wall time [min]:     0.035
 

 SCF control                  : diis
 Damping factor/level shift   : 0.000/0.000
 DIIS [start/end/frequency]   :   2 /200 /  1

 Constructing Fock-matrix...
 
 Pipek-Mezey localization...
 Step  Convergence
   1   0.045535350989
   2   0.044717039654
   3   0.000017802041
   4   0.000000005331
   5   0.000000000007
   6   0.000000000000
 CPU time [min]:     1.659                   Wall time [min]:     0.035
 
 Constructing local fitting domains...
 Maximum number of atoms in fitting domains:    8
 Average number of atoms in fitting domains:    8.0
 
 First step of Coulomb + first step of exchange...
 Exchange contribution is evaluated for MOs 1 to 5.
   1% done.
  14% done.
  25% done.
  37% done.
  49% done.
  60% done.
  72% done.
  83% done.
 100% done.
 Fitting and assembly step of exchange...
 CPU time [min]:     1.744                   Wall time [min]:     0.037
 
 Second step of Coulomb...
   1% done.
  14% done.
  25% done.
  37% done.
  49% done.
  60% done.
  72% done.
  83% done.
 100% done.
 CPU time [min]:     1.768                   Wall time [min]:     0.037
 
 Gradient norm:      3.7377E-07
 RMS of [F,P]:                                         0.00000001226746
 RMS of difference density:                            0.00000001908367
 Gap [au]:  0.51992457
 ALPHA OCC:   5
 BETA  OCC:   5
 
 ***HARTREE-FOCK ENERGY IN STEP  13 IS        -56.1477713217225158 [AU]
 
 Step comparison  Energy Drift [au]  DIIS error drift  Gradient drift
       12            5.4507E-08        -1.2210E-08      -3.7042E-07
 Warning! The DIIS error goes uphill (with respect to previous step).
 Warning! The DIIS error goes uphill (with respect to step  12 ).
 Warning! The gradient goes uphill (with respect to previous step).
 Warning! The gradient goes uphill (with respect to step  12 ).
 ======================================================================
 
 SUCCESS...
 THE SCF ITERATION HAS CONVERGED!
 
                   A   
 FINAL ALPHA OCC:   5
 FINAL BETA  OCC:   5
 
 ***FINAL HARTREE-FOCK ENERGY:        -56.1477713217225158 [AU]
 
 Orbital energies [au]:
      Irrep         Alpha          Beta
    1   A        -15.539295     -15.539295
    2   A         -1.111293      -1.111293
    3   A         -0.615217      -0.615217
    4   A         -0.615174      -0.615174
    5   A         -0.418624      -0.418624
 
    6   A          0.101300       0.101300
    7   A          0.143192       0.143192
    8   A          0.176655       0.176655
    9   A          0.238488       0.238488
   10   A          0.242536       0.242536
   11   A          0.251481       0.251481
   12   A          0.268848       0.268848
   13   A          0.278709       0.278709
   14   A          0.297976       0.297976
   15   A          0.436768       0.436768
   16   A          0.491422       0.491422
   17   A          0.591781       0.591781
   18   A          0.658166       0.658166
   19   A          0.706453       0.706453
   20   A          0.716909       0.716909
   21   A          0.729519       0.729519
   22   A          0.734356       0.734356
   23   A          0.741902       0.741902
   24   A          0.839793       0.839793
   25   A          0.884347       0.884347
   26   A          0.991392       0.991392
   27   A          1.093541       1.093541
   28   A          1.094926       1.094926
   29   A          1.140793       1.140793
   30   A          1.459536       1.459536
   31   A          1.459555       1.459555
   32   A          1.557083       1.557083
   33   A          1.570504       1.570504
   34   A          1.573301       1.573301
   35   A          1.610843       1.610843
   36   A          1.615623       1.615623
   37   A          1.642293       1.642293
   38   A          1.748677       1.748677
   39   A          1.828560       1.828560
   40   A          1.866412       1.866412
   41   A          1.953824       1.953824
   42   A          1.963420       1.963420
   43   A          1.964600       1.964600
   44   A          1.974686       1.974686
   45   A          2.025260       2.025260
   46   A          2.074237       2.074237
   47   A          2.074371       2.074371
   48   A          2.272078       2.272078
   49   A          2.275362       2.275362
   50   A          2.417617       2.417617
   51   A          2.418499       2.418499
   52   A          2.423182       2.423182
   53   A          2.439181       2.439181
   54   A          2.450929       2.450929
   55   A          2.470560       2.470560
   56   A          2.478664       2.478664
   57   A          2.486670       2.486670
   58   A          2.489009       2.489009
   59   A          2.505381       2.505381
   60   A          2.518479       2.518479
   61   A          2.610719       2.610719
   62   A          2.746566       2.746566
   63   A          3.048420       3.048420
   64   A          3.117573       3.117573
   65   A          3.155486       3.155486
   66   A          3.155545       3.155545
   67   A          3.259062       3.259062
   68   A          3.692118       3.692118
   69   A          3.692273       3.692273
   70   A          4.008801       4.008801
   71   A          4.018250       4.018250
   72   A          4.027299       4.027299
   73   A          4.043799       4.043799
   74   A          4.056788       4.056788
   75   A          4.080785       4.080785
   76   A          4.155089       4.155089
   77   A          4.155640       4.155640
   78   A          4.162610       4.162610
   79   A          4.185925       4.185925
   80   A          4.896052       4.896052
   81   A          4.942045       4.942045
   82   A          6.032866       6.032866
   83   A          6.046819       6.046819
   84   A          6.053521       6.053521
   85   A          6.079541       6.079541
   86   A         26.582673      26.582673
   87   A         26.669649      26.669649
 
 RETURNING FROM SCF ALGORITHM
 ======================================================================

 ************************ 2026-02-26 23:13:54 *************************
 Executing integ...

 Allocation of 46.0 Gbytes of memory...
 
 
 Number of atoms:                 12
 Charge:                           0
 Number of electrons:             10
 Number of core electrons:         2
 Spin multiplicity:                1
 
                 Cartesian coordinates [bohr]      Atomic mass [AMU]  Z
   1  N     6.82182577    2.87346447    7.72099687     0.000000       0
   2  H     8.36625160    2.20896759    8.68871146     0.000000       0
   3  H     7.48639849    3.84114800    6.17641118     0.000000       0
   4  H     5.85401804    1.32911599    7.05654762     0.000000       0
   5  N     7.72105127    6.82177201   12.56860613     0.000000       0
   6  H     7.05646455    5.85409719   11.02403942     0.000000       0
   7  H     8.68882825    8.36611725   11.90418158     0.000000       0
   8  H     6.17659278    7.48627216   13.53633668     0.000000       0
   9  N     7.72105127   16.51701190   12.56860613    14.003074       7
  10  H     7.05646455   15.54933707   11.02403942     1.007825       1
  11  H     8.68882825   18.06135713   11.90418158     1.007825       1
  12  H     6.17659278   17.18151205   13.53633668     1.007825       1
 
 This molecule is an asymmetric top.
 
 Point group: C1  
 Computational point group: C1  
 
 Cartesian coordinates in standard orientation [bohr]
   1  N   -12.49071372   -1.38016716    0.22894358
   2  H   -12.83743013   -0.24013201   -1.30186873
   3  H   -11.90233523   -3.09693988   -0.45685191
   4  H   -14.18774053   -1.67139432    1.12250029
   5  N    -7.44855104    2.37628295   -0.37332926
   6  H    -8.78883113    1.09871152    0.20564996
   7  H    -6.07498069    1.37942145   -1.31281111
   8  H    -6.63073928    3.11228957    1.22444828
   9  N     1.94712528    0.00569377   -0.05828973
  10  H     0.60684519   -1.27187766    0.52068949
  11  H     3.32069563   -0.99116773   -0.99777157
  12  H     2.76493704    0.74170039    1.53948781
 
 Nuclear repulsion energy [au]:         11.785807877699
 
 
 Basis set information:
 
 Maximum angular momentum: g
 Maximum number of contracted Gaussians:   11
 Maximum number of primitive Gaussians:    14
 Spherical harmonic GTOs are used.
 
 
 Conventional basis set:
 
   1  N  aug-cc-pvdz [ 10s 5p 2d | 4s 3p 2d ]
   2  H  aug-cc-pvdz [ 5s 2p | 3s 2p ]
   3  H  aug-cc-pvdz [ 5s 2p | 3s 2p ]
   4  H  aug-cc-pvdz [ 5s 2p | 3s 2p ]
   5  N  aug-cc-pvdz [ 10s 5p 2d | 4s 3p 2d ]
   6  H  aug-cc-pvdz [ 5s 2p | 3s 2p ]
   7  H  aug-cc-pvdz [ 5s 2p | 3s 2p ]
   8  H  aug-cc-pvdz [ 5s 2p | 3s 2p ]
   9  N  aug-cc-pvdz [ 10s 5p 2d | 4s 3p 2d ]
  10  H  aug-cc-pvdz [ 5s 2p | 3s 2p ]
  11  H  aug-cc-pvdz [ 5s 2p | 3s 2p ]
  12  H  aug-cc-pvdz [ 5s 2p | 3s 2p ]
 
 Basis functions:
            1             2             3             4             5             6             7             8             9            10
    0    1N1s          1N2s          1N3s          1N4s          1N1pz         1N1py         1N1px         1N2pz         1N2py         1N2px     
    1    1N3pz         1N3py         1N3px         1N1d-2        1N1d-1        1N1d0         1N1d+1        1N1d+2        1N2d-2        1N2d-1    
    2    1N2d0         1N2d+1        1N2d+2        2H1s          2H2s          2H3s          2H1pz         2H1py         2H1px         2H2pz     
    3    2H2py         2H2px         3H1s          3H2s          3H3s          3H1pz         3H1py         3H1px         3H2pz         3H2py     
    4    3H2px         4H1s          4H2s          4H3s          4H1pz         4H1py         4H1px         4H2pz         4H2py         4H2px     
    5    5N1s          5N2s          5N3s          5N4s          5N1pz         5N1py         5N1px         5N2pz         5N2py         5N2px     
    6    5N3pz         5N3py         5N3px         5N1d-2        5N1d-1        5N1d0         5N1d+1        5N1d+2        5N2d-2        5N2d-1    
    7    5N2d0         5N2d+1        5N2d+2        6H1s          6H2s          6H3s          6H1pz         6H1py         6H1px         6H2pz     
    8    6H2py         6H2px         7H1s          7H2s          7H3s          7H1pz         7H1py         7H1px         7H2pz         7H2py     
    9    7H2px         8H1s          8H2s          8H3s          8H1pz         8H1py         8H1px         8H2pz         8H2py         8H2px     
   10    9N1s          9N2s          9N3s          9N4s          9N1pz         9N1py         9N1px         9N2pz         9N2py         9N2px     
   11    9N3pz         9N3py         9N3px         9N1d-2        9N1d-1        9N1d0         9N1d+1        9N1d+2        9N2d-2        9N2d-1    
   12    9N2d0         9N2d+1        9N2d+2       10H1s         10H2s         10H3s         10H1pz        10H1py        10H1px        10H2pz     
   13   10H2py        10H2px        11H1s         11H2s         11H3s         11H1pz        11H1py        11H1px        11H2pz        11H2py     
   14   11H2px        12H1s         12H2s         12H3s         12H1pz        12H1py        12H1px        12H2pz        12H2py        12H2px     
 
 Maximum number of basis functions per shell:   10
 Total number of basis functions:    150
 
 
 Fitting basis set for the SCF calculation:
 
   1  N  aug-cc-pvdz-ri-jk [ 11s 8p 6d 3f | 11s 8p 6d 3f ]
   2  H  aug-cc-pvdz-ri-jk [ 5s 4p 3d | 5s 4p 3d ]
   3  H  aug-cc-pvdz-ri-jk [ 5s 4p 3d | 5s 4p 3d ]
   4  H  aug-cc-pvdz-ri-jk [ 5s 4p 3d | 5s 4p 3d ]
   5  N  aug-cc-pvdz-ri-jk [ 11s 8p 6d 3f | 11s 8p 6d 3f ]
   6  H  aug-cc-pvdz-ri-jk [ 5s 4p 3d | 5s 4p 3d ]
   7  H  aug-cc-pvdz-ri-jk [ 5s 4p 3d | 5s 4p 3d ]
   8  H  aug-cc-pvdz-ri-jk [ 5s 4p 3d | 5s 4p 3d ]
   9  N  aug-cc-pvdz-ri-jk [ 11s 8p 6d 3f | 11s 8p 6d 3f ]
  10  H  aug-cc-pvdz-ri-jk [ 5s 4p 3d | 5s 4p 3d ]
  11  H  aug-cc-pvdz-ri-jk [ 5s 4p 3d | 5s 4p 3d ]
  12  H  aug-cc-pvdz-ri-jk [ 5s 4p 3d | 5s 4p 3d ]
 
 Basis functions:
            1             2             3             4             5             6             7             8             9            10
    0    1N1s          1N2s          1N3s          1N4s          1N5s          1N6s          1N7s          1N8s          1N9s          1N10s     
    1    1N11s         1N1pz         1N1py         1N1px         1N2pz         1N2py         1N2px         1N3pz         1N3py         1N3px     
    2    1N4pz         1N4py         1N4px         1N5pz         1N5py         1N5px         1N6pz         1N6py         1N6px         1N7pz     
    3    1N7py         1N7px         1N8pz         1N8py         1N8px         1N1d-2        1N1d-1        1N1d0         1N1d+1        1N1d+2    
    4    1N2d-2        1N2d-1        1N2d0         1N2d+1        1N2d+2        1N3d-2        1N3d-1        1N3d0         1N3d+1        1N3d+2    
    5    1N4d-2        1N4d-1        1N4d0         1N4d+1        1N4d+2        1N5d-2        1N5d-1        1N5d0         1N5d+1        1N5d+2    
    6    1N6d-2        1N6d-1        1N6d0         1N6d+1        1N6d+2        1N1f-3        1N1f-2        1N1f-1        1N1f0         1N1f+1    
    7    1N1f+2        1N1f+3        1N2f-3        1N2f-2        1N2f-1        1N2f0         1N2f+1        1N2f+2        1N2f+3        1N3f-3    
    8    1N3f-2        1N3f-1        1N3f0         1N3f+1        1N3f+2        1N3f+3        2H1s          2H2s          2H3s          2H4s      
    9    2H5s          2H1pz         2H1py         2H1px         2H2pz         2H2py         2H2px         2H3pz         2H3py         2H3px     
   10    2H4pz         2H4py         2H4px         2H1d-2        2H1d-1        2H1d0         2H1d+1        2H1d+2        2H2d-2        2H2d-1    
   11    2H2d0         2H2d+1        2H2d+2        2H3d-2        2H3d-1        2H3d0         2H3d+1        2H3d+2        3H1s          3H2s      
   12    3H3s          3H4s          3H5s          3H1pz         3H1py         3H1px         3H2pz         3H2py         3H2px         3H3pz     
   13    3H3py         3H3px         3H4pz         3H4py         3H4px         3H1d-2        3H1d-1        3H1d0         3H1d+1        3H1d+2    
   14    3H2d-2        3H2d-1        3H2d0         3H2d+1        3H2d+2        3H3d-2        3H3d-1        3H3d0         3H3d+1        3H3d+2    
   15    4H1s          4H2s          4H3s          4H4s          4H5s          4H1pz         4H1py         4H1px         4H2pz         4H2py     
   16    4H2px         4H3pz         4H3py         4H3px         4H4pz         4H4py         4H4px         4H1d-2        4H1d-1        4H1d0     
   17    4H1d+1        4H1d+2        4H2d-2        4H2d-1        4H2d0         4H2d+1        4H2d+2        4H3d-2        4H3d-1        4H3d0     
   18    4H3d+1        4H3d+2        5N1s          5N2s          5N3s          5N4s          5N5s          5N6s          5N7s          5N8s      
   19    5N9s          5N10s         5N11s         5N1pz         5N1py         5N1px         5N2pz         5N2py         5N2px         5N3pz     
   20    5N3py         5N3px         5N4pz         5N4py         5N4px         5N5pz         5N5py         5N5px         5N6pz         5N6py     
   21    5N6px         5N7pz         5N7py         5N7px         5N8pz         5N8py         5N8px         5N1d-2        5N1d-1        5N1d0     
   22    5N1d+1        5N1d+2        5N2d-2        5N2d-1        5N2d0         5N2d+1        5N2d+2        5N3d-2        5N3d-1        5N3d0     
   23    5N3d+1        5N3d+2        5N4d-2        5N4d-1        5N4d0         5N4d+1        5N4d+2        5N5d-2        5N5d-1        5N5d0     
   24    5N5d+1        5N5d+2        5N6d-2        5N6d-1        5N6d0         5N6d+1        5N6d+2        5N1f-3        5N1f-2        5N1f-1    
   25    5N1f0         5N1f+1        5N1f+2        5N1f+3        5N2f-3        5N2f-2        5N2f-1        5N2f0         5N2f+1        5N2f+2    
   26    5N2f+3        5N3f-3        5N3f-2        5N3f-1        5N3f0         5N3f+1        5N3f+2        5N3f+3        6H1s          6H2s      
   27    6H3s          6H4s          6H5s          6H1pz         6H1py         6H1px         6H2pz         6H2py         6H2px         6H3pz     
   28    6H3py         6H3px         6H4pz         6H4py         6H4px         6H1d-2        6H1d-1        6H1d0         6H1d+1        6H1d+2    
   29    6H2d-2        6H2d-1        6H2d0         6H2d+1        6H2d+2        6H3d-2        6H3d-1        6H3d0         6H3d+1        6H3d+2    
   30    7H1s          7H2s          7H3s          7H4s          7H5s          7H1pz         7H1py         7H1px         7H2pz         7H2py     
   31    7H2px         7H3pz         7H3py         7H3px         7H4pz         7H4py         7H4px         7H1d-2        7H1d-1        7H1d0     
   32    7H1d+1        7H1d+2        7H2d-2        7H2d-1        7H2d0         7H2d+1        7H2d+2        7H3d-2        7H3d-1        7H3d0     
   33    7H3d+1        7H3d+2        8H1s          8H2s          8H3s          8H4s          8H5s          8H1pz         8H1py         8H1px     
   34    8H2pz         8H2py         8H2px         8H3pz         8H3py         8H3px         8H4pz         8H4py         8H4px         8H1d-2    
   35    8H1d-1        8H1d0         8H1d+1        8H1d+2        8H2d-2        8H2d-1        8H2d0         8H2d+1        8H2d+2        8H3d-2    
   36    8H3d-1        8H3d0         8H3d+1        8H3d+2        9N1s          9N2s          9N3s          9N4s          9N5s          9N6s      
   37    9N7s          9N8s          9N9s          9N10s         9N11s         9N1pz         9N1py         9N1px         9N2pz         9N2py     
   38    9N2px         9N3pz         9N3py         9N3px         9N4pz         9N4py         9N4px         9N5pz         9N5py         9N5px     
   39    9N6pz         9N6py         9N6px         9N7pz         9N7py         9N7px         9N8pz         9N8py         9N8px         9N1d-2    
   40    9N1d-1        9N1d0         9N1d+1        9N1d+2        9N2d-2        9N2d-1        9N2d0         9N2d+1        9N2d+2        9N3d-2    
   41    9N3d-1        9N3d0         9N3d+1        9N3d+2        9N4d-2        9N4d-1        9N4d0         9N4d+1        9N4d+2        9N5d-2    
   42    9N5d-1        9N5d0         9N5d+1        9N5d+2        9N6d-2        9N6d-1        9N6d0         9N6d+1        9N6d+2        9N1f-3    
   43    9N1f-2        9N1f-1        9N1f0         9N1f+1        9N1f+2        9N1f+3        9N2f-3        9N2f-2        9N2f-1        9N2f0     
   44    9N2f+1        9N2f+2        9N2f+3        9N3f-3        9N3f-2        9N3f-1        9N3f0         9N3f+1        9N3f+2        9N3f+3    
   45   10H1s         10H2s         10H3s         10H4s         10H5s         10H1pz        10H1py        10H1px        10H2pz        10H2py     
   46   10H2px        10H3pz        10H3py        10H3px        10H4pz        10H4py        10H4px        10H1d-2       10H1d-1       10H1d0     
   47   10H1d+1       10H1d+2       10H2d-2       10H2d-1       10H2d0        10H2d+1       10H2d+2       10H3d-2       10H3d-1       10H3d0     
   48   10H3d+1       10H3d+2       11H1s         11H2s         11H3s         11H4s         11H5s         11H1pz        11H1py        11H1px     
   49   11H2pz        11H2py        11H2px        11H3pz        11H3py        11H3px        11H4pz        11H4py        11H4px        11H1d-2    
   50   11H1d-1       11H1d0        11H1d+1       11H1d+2       11H2d-2       11H2d-1       11H2d0        11H2d+1       11H2d+2       11H3d-2    
   51   11H3d-1       11H3d0        11H3d+1       11H3d+2       12H1s         12H2s         12H3s         12H4s         12H5s         12H1pz     
   52   12H1py        12H1px        12H2pz        12H2py        12H2px        12H3pz        12H3py        12H3px        12H4pz        12H4py     
   53   12H4px        12H1d-2       12H1d-1       12H1d0        12H1d+1       12H1d+2       12H2d-2       12H2d-1       12H2d0        12H2d+1    
   54   12H2d+2       12H3d-2       12H3d-1       12H3d0        12H3d+1       12H3d+2    
 
 Maximum number of basis functions per shell:   30
 Total number of basis functions:    546
 
 
 Fitting basis set for the correlation calculation:
 
   1  N  aug-cc-pvdz-ri [ 8s 6p 5d 3f | 8s 6p 5d 3f ]
   2  H  aug-cc-pvdz-ri [ 4s 3p 2d | 4s 3p 2d ]
   3  H  aug-cc-pvdz-ri [ 4s 3p 2d | 4s 3p 2d ]
   4  H  aug-cc-pvdz-ri [ 4s 3p 2d | 4s 3p 2d ]
   5  N  aug-cc-pvdz-ri [ 8s 6p 5d 3f | 8s 6p 5d 3f ]
   6  H  aug-cc-pvdz-ri [ 4s 3p 2d | 4s 3p 2d ]
   7  H  aug-cc-pvdz-ri [ 4s 3p 2d | 4s 3p 2d ]
   8  H  aug-cc-pvdz-ri [ 4s 3p 2d | 4s 3p 2d ]
   9  N  aug-cc-pvdz-ri [ 8s 6p 5d 3f | 8s 6p 5d 3f ]
  10  H  aug-cc-pvdz-ri [ 4s 3p 2d | 4s 3p 2d ]
  11  H  aug-cc-pvdz-ri [ 4s 3p 2d | 4s 3p 2d ]
  12  H  aug-cc-pvdz-ri [ 4s 3p 2d | 4s 3p 2d ]
 
 Basis functions:
            1             2             3             4             5             6             7             8             9            10
    0    1N1s          1N2s          1N3s          1N4s          1N5s          1N6s          1N7s          1N8s          1N1pz         1N1py     
    1    1N1px         1N2pz         1N2py         1N2px         1N3pz         1N3py         1N3px         1N4pz         1N4py         1N4px     
    2    1N5pz         1N5py         1N5px         1N6pz         1N6py         1N6px         1N1d-2        1N1d-1        1N1d0         1N1d+1    
    3    1N1d+2        1N2d-2        1N2d-1        1N2d0         1N2d+1        1N2d+2        1N3d-2        1N3d-1        1N3d0         1N3d+1    
    4    1N3d+2        1N4d-2        1N4d-1        1N4d0         1N4d+1        1N4d+2        1N5d-2        1N5d-1        1N5d0         1N5d+1    
    5    1N5d+2        1N1f-3        1N1f-2        1N1f-1        1N1f0         1N1f+1        1N1f+2        1N1f+3        1N2f-3        1N2f-2    
    6    1N2f-1        1N2f0         1N2f+1        1N2f+2        1N2f+3        1N3f-3        1N3f-2        1N3f-1        1N3f0         1N3f+1    
    7    1N3f+2        1N3f+3        2H1s          2H2s          2H3s          2H4s          2H1pz         2H1py         2H1px         2H2pz     
    8    2H2py         2H2px         2H3pz         2H3py         2H3px         2H1d-2        2H1d-1        2H1d0         2H1d+1        2H1d+2    
    9    2H2d-2        2H2d-1        2H2d0         2H2d+1        2H2d+2        3H1s          3H2s          3H3s          3H4s          3H1pz     
   10    3H1py         3H1px         3H2pz         3H2py         3H2px         3H3pz         3H3py         3H3px         3H1d-2        3H1d-1    
   11    3H1d0         3H1d+1        3H1d+2        3H2d-2        3H2d-1        3H2d0         3H2d+1        3H2d+2        4H1s          4H2s      
   12    4H3s          4H4s          4H1pz         4H1py         4H1px         4H2pz         4H2py         4H2px         4H3pz         4H3py     
   13    4H3px         4H1d-2        4H1d-1        4H1d0         4H1d+1        4H1d+2        4H2d-2        4H2d-1        4H2d0         4H2d+1    
   14    4H2d+2        5N1s          5N2s          5N3s          5N4s          5N5s          5N6s          5N7s          5N8s          5N1pz     
   15    5N1py         5N1px         5N2pz         5N2py         5N2px         5N3pz         5N3py         5N3px         5N4pz         5N4py     
   16    5N4px         5N5pz         5N5py         5N5px         5N6pz         5N6py         5N6px         5N1d-2        5N1d-1        5N1d0     
   17    5N1d+1        5N1d+2        5N2d-2        5N2d-1        5N2d0         5N2d+1        5N2d+2        5N3d-2        5N3d-1        5N3d0     
   18    5N3d+1        5N3d+2        5N4d-2        5N4d-1        5N4d0         5N4d+1        5N4d+2        5N5d-2        5N5d-1        5N5d0     
   19    5N5d+1        5N5d+2        5N1f-3        5N1f-2        5N1f-1        5N1f0         5N1f+1        5N1f+2        5N1f+3        5N2f-3    
   20    5N2f-2        5N2f-1        5N2f0         5N2f+1        5N2f+2        5N2f+3        5N3f-3        5N3f-2        5N3f-1        5N3f0     
   21    5N3f+1        5N3f+2        5N3f+3        6H1s          6H2s          6H3s          6H4s          6H1pz         6H1py         6H1px     
   22    6H2pz         6H2py         6H2px         6H3pz         6H3py         6H3px         6H1d-2        6H1d-1        6H1d0         6H1d+1    
   23    6H1d+2        6H2d-2        6H2d-1        6H2d0         6H2d+1        6H2d+2        7H1s          7H2s          7H3s          7H4s      
   24    7H1pz         7H1py         7H1px         7H2pz         7H2py         7H2px         7H3pz         7H3py         7H3px         7H1d-2    
   25    7H1d-1        7H1d0         7H1d+1        7H1d+2        7H2d-2        7H2d-1        7H2d0         7H2d+1        7H2d+2        8H1s      
   26    8H2s          8H3s          8H4s          8H1pz         8H1py         8H1px         8H2pz         8H2py         8H2px         8H3pz     
   27    8H3py         8H3px         8H1d-2        8H1d-1        8H1d0         8H1d+1        8H1d+2        8H2d-2        8H2d-1        8H2d0     
   28    8H2d+1        8H2d+2        9N1s          9N2s          9N3s          9N4s          9N5s          9N6s          9N7s          9N8s      
   29    9N1pz         9N1py         9N1px         9N2pz         9N2py         9N2px         9N3pz         9N3py         9N3px         9N4pz     
   30    9N4py         9N4px         9N5pz         9N5py         9N5px         9N6pz         9N6py         9N6px         9N1d-2        9N1d-1    
   31    9N1d0         9N1d+1        9N1d+2        9N2d-2        9N2d-1        9N2d0         9N2d+1        9N2d+2        9N3d-2        9N3d-1    
   32    9N3d0         9N3d+1        9N3d+2        9N4d-2        9N4d-1        9N4d0         9N4d+1        9N4d+2        9N5d-2        9N5d-1    
   33    9N5d0         9N5d+1        9N5d+2        9N1f-3        9N1f-2        9N1f-1        9N1f0         9N1f+1        9N1f+2        9N1f+3    
   34    9N2f-3        9N2f-2        9N2f-1        9N2f0         9N2f+1        9N2f+2        9N2f+3        9N3f-3        9N3f-2        9N3f-1    
   35    9N3f0         9N3f+1        9N3f+2        9N3f+3       10H1s         10H2s         10H3s         10H4s         10H1pz        10H1py     
   36   10H1px        10H2pz        10H2py        10H2px        10H3pz        10H3py        10H3px        10H1d-2       10H1d-1       10H1d0     
   37   10H1d+1       10H1d+2       10H2d-2       10H2d-1       10H2d0        10H2d+1       10H2d+2       11H1s         11H2s         11H3s      
   38   11H4s         11H1pz        11H1py        11H1px        11H2pz        11H2py        11H2px        11H3pz        11H3py        11H3px     
   39   11H1d-2       11H1d-1       11H1d0        11H1d+1       11H1d+2       11H2d-2       11H2d-1       11H2d0        11H2d+1       11H2d+2    
   40   12H1s         12H2s         12H3s         12H4s         12H1pz        12H1py        12H1px        12H2pz        12H2py        12H2px     
   41   12H3pz        12H3py        12H3px        12H1d-2       12H1d-1       12H1d0        12H1d+1       12H1d+2       12H2d-2       12H2d-1    
   42   12H2d0        12H2d+1       12H2d+2    
 
 Maximum number of basis functions per shell:   30
 Total number of basis functions:    423
 
 
 Old basis set for SCF restart
 
   1  N  def2-svp [ 7s 4p 1d | 3s 2p 1d ]
   2  H  def2-svp [ 4s 1p | 2s 1p ]
   3  H  def2-svp [ 4s 1p | 2s 1p ]
   4  H  def2-svp [ 4s 1p | 2s 1p ]
   5  N  def2-svp [ 7s 4p 1d | 3s 2p 1d ]
   6  H  def2-svp [ 4s 1p | 2s 1p ]
   7  H  def2-svp [ 4s 1p | 2s 1p ]
   8  H  def2-svp [ 4s 1p | 2s 1p ]
   9  N  def2-svp [ 7s 4p 1d | 3s 2p 1d ]
  10  H  def2-svp [ 4s 1p | 2s 1p ]
  11  H  def2-svp [ 4s 1p | 2s 1p ]
  12  H  def2-svp [ 4s 1p | 2s 1p ]
 
 Basis functions:
            1             2             3             4             5             6             7             8             9            10
    0    1N1s          1N2s          1N3s          1N1pz         1N1py         1N1px         1N2pz         1N2py         1N2px         1N1d-2    
    1    1N1d-1        1N1d0         1N1d+1        1N1d+2        2H1s          2H2s          2H1pz         2H1py         2H1px         3H1s      
    2    3H2s          3H1pz         3H1py         3H1px         4H1s          4H2s          4H1pz         4H1py         4H1px         5N1s      
    3    5N2s          5N3s          5N1pz         5N1py         5N1px         5N2pz         5N2py         5N2px         5N1d-2        5N1d-1    
    4    5N1d0         5N1d+1        5N1d+2        6H1s          6H2s          6H1pz         6H1py         6H1px         7H1s          7H2s      
    5    7H1pz         7H1py         7H1px         8H1s          8H2s          8H1pz         8H1py         8H1px         9N1s          9N2s      
    6    9N3s          9N1pz         9N1py         9N1px         9N2pz         9N2py         9N2px         9N1d-2        9N1d-1        9N1d0     
    7    9N1d+1        9N1d+2       10H1s         10H2s         10H1pz        10H1py        10H1px        11H1s         11H2s         11H1pz     
    8   11H1py        11H1px        12H1s         12H2s         12H1pz        12H1py        12H1px     
 
 Maximum number of basis functions per shell:   30
 Total number of basis functions:     87
 
 
 Character table for point group C1:
 
          E  
    A     1
 
 Number of basis functions per irrep:
    A     150
 
 
 Calculation of overlap integrals...
 CPU time [min]:     0.185                   Wall time [min]:     0.005
 
 Calculation of the square root of the overlap matrix...
 Minimum eigenvalue of the overlap matrix: 0.126486E-02
 CPU time [min]:     0.202                   Wall time [min]:     0.006
 
 Calculation of kinetic energy integrals...
 CPU time [min]:     0.204                   Wall time [min]:     0.006
 Calculation of dipole moment integrals...
 CPU time [min]:     0.206                   Wall time [min]:     0.006
 Calculation of nuclear attraction integrals...
 CPU time [min]:     0.207                   Wall time [min]:     0.006
 Calculation of overlap integrals...
 CPU time [min]:     0.209                   Wall time [min]:     0.006
 
 Calculation of prescreening integrals...
 CPU time [min]:     0.277                   Wall time [min]:     0.007
 
 Calculation of two-center Coulomb integrals...
   1% done.
  13% done.
  24% done.
  37% done.
  53% done.
  68% done.
  80% done.
  95% done.
 100% done.
 CPU time [min]:     0.289                   Wall time [min]:     0.007
 
 Cholesky decomposition of the two-center matrix...
 Reciprocal of the condition number:  0.106567E-04
 CPU time [min]:     0.304                   Wall time [min]:     0.007
 

 ************************ 2026-02-26 23:13:54 *************************
 Executing scf...

 @scfsetup: integrals calculated directly
            mrcc/integ direct run
 @scfsetup: calculating on full matrices
            not using symmetry adapted basis
 @scfsetup: diis switched on
 @scfsetup: number of steps to extrapolate from  10
 @scfsetup: tolerance in energy deviation    0.100000E-07
            tolerance in density deviation    0.100000E-08
 @scfsetup: maximum number of iterations: 200
 @scfsetup: restricted closed shell hf calc
 @scfsetup: restarting scf from SCFDENSITIES file
 @scfsetup: occupation set:
            from initial orbitals
 @scfsetup: Parameter-set for SCF acceleration: normal
 @scfsetup: diis runs from iteration:   2
 @scfsetup: diis runs to iteration: 200
 @scfsetup: diis runs in every iteration
 @scfsetup: diiswatch is disabled                   
 @scfsetup: diis dtol criteria to switch on:      0.0000E+00
           (or the iteration number below is reached)
 @scfsetup: static damping scheme
            iteration step criteria to turn damping off: 3
 @scfsetup: dynamic level shifting
            tolarance in HOMO-LUMO gap:  0.200
            tolarance in density deviation:     0.0000E+00
            iteration step criteria to turn level shifting off: 8
 Allocation of 46.0 Gbytes of memory...
 ======================================================================
 ITERATION STEP   1
 CPU time [min]:     0.037                   Wall time [min]:     0.008
 

 SCF control                  : initial
 Damping factor/level shift   : 0.000/0.200
 DIIS [start/end/frequency]   :   2 /200 /  1

 Constructing Fock-matrix...
 Inverse square root: The matrix is not positive definite!
 
 Pipek-Mezey localization...
 Step  Convergence
   1   1.144498111373
   2   0.217215067021
   3   0.019380694032
   4   0.001922422979
   5   0.000258004322
   6   0.000035216356
   7   0.000004833794
   8   0.000000665783
   9   0.000000091141
  10   0.000000012517
  11   0.000000001719
 CPU time [min]:     0.065                   Wall time [min]:     0.009
 
 Constructing local fitting domains...
 Maximum number of atoms in fitting domains:    8
 Average number of atoms in fitting domains:    7.4
 
 First step of Coulomb + first step of exchange...
 Exchange contribution is evaluated for MOs 1 to 5.
   1% done.
  13% done.
  24% done.
  37% done.
  48% done.
  67% done.
  78% done.
  92% done.
 100% done.
 Fitting and assembly step of exchange...
 CPU time [min]:     0.174                   Wall time [min]:     0.011
 
 Second step of Coulomb...
   1% done.
  13% done.
  24% done.
  37% done.
  48% done.
  67% done.
  78% done.
  92% done.
 100% done.
 CPU time [min]:     0.203                   Wall time [min]:     0.011
 
 Gradient norm:      1.0104E-01
 RMS of [F,P]:                                         0.00185269371143
 RMS of difference density:                            0.00455467478903
 Gap [au]:  0.44909856
 ALPHA OCC:   5
 BETA  OCC:   5
 
 ***HARTREE-FOCK ENERGY IN STEP   1 IS        -56.1926680558725593 [AU]
 ======================================================================
 ITERATION STEP   2
 CPU time [min]:     0.221                   Wall time [min]:     0.011
 

 SCF control                  : diis
 Damping factor/level shift   : 0.000/0.000
 DIIS [start/end/frequency]   :   2 /200 /  1

 Constructing Fock-matrix...
 
 Pipek-Mezey localization...
 Step  Convergence
   1   0.010197103155
   2   0.009976616386
   3   0.000044726610
   4   0.000001781408
   5   0.000000152686
   6   0.000000016648
   7   0.000000002097
 CPU time [min]:     0.247                   Wall time [min]:     0.012
 
 Constructing local fitting domains...
 Maximum number of atoms in fitting domains:    8
 Average number of atoms in fitting domains:    7.4
 
 First step of Coulomb + first step of exchange...
 Exchange contribution is evaluated for MOs 1 to 5.
   1% done.
  13% done.
  24% done.
  37% done.
  48% done.
  67% done.
  78% done.
  92% done.
 100% done.
 Fitting and assembly step of exchange...
 CPU time [min]:     0.346                   Wall time [min]:     0.013
 
 Second step of Coulomb...
   1% done.
  13% done.
  24% done.
  37% done.
  48% done.
  67% done.
  78% done.
  92% done.
 100% done.
 CPU time [min]:     0.376                   Wall time [min]:     0.014
 
 Gradient norm:      2.0649E-02
 DIIS is running in this iteration step.
 RMS of [F,P]:                                         0.00033858246033
 RMS of difference density:                            0.00070580317447
 Gap [au]:  0.45341358
 ALPHA OCC:   5
 BETA  OCC:   5
 
 ***HARTREE-FOCK ENERGY IN STEP   2 IS        -56.2032729898938967 [AU]
 
 Step comparison  Energy Drift [au]  DIIS error drift  Gradient drift
        1            1.0605E-02         1.5141E-03       8.0390E-02
        2            5.6203E+01         1.0000E-09       8.0390E-02
 ======================================================================
 ITERATION STEP   3
 CPU time [min]:     0.396                   Wall time [min]:     0.014
 

 SCF control                  : diis
 Damping factor/level shift   : 0.000/0.000
 DIIS [start/end/frequency]   :   2 /200 /  1

 Constructing Fock-matrix...
 
 Pipek-Mezey localization...
 Step  Convergence
   1   0.019970767661
   2   0.017887159129
   3   0.000150813687
   4   0.000004348561
   5   0.000000212783
   6   0.000000015653
   7   0.000000001638
 CPU time [min]:     0.422                   Wall time [min]:     0.015
 
 Constructing local fitting domains...
 Local fitting domains are unchanged.
 
 First step of Coulomb + first step of exchange...
 Exchange contribution is evaluated for MOs 1 to 5.
   1% done.
  13% done.
  24% done.
  37% done.
  48% done.
  67% done.
  78% done.
  92% done.
 100% done.
 Fitting and assembly step of exchange...
 CPU time [min]:     0.518                   Wall time [min]:     0.016
 
 Second step of Coulomb...
   1% done.
  13% done.
  24% done.
  37% done.
  48% done.
  67% done.
  78% done.
  92% done.
 100% done.
 CPU time [min]:     0.548                   Wall time [min]:     0.017
 
 Gradient norm:      6.8298E-03
 DIIS is running in this iteration step.
 RMS of [F,P]:                                         0.00011653230459
 RMS of difference density:                            0.00027014995117
 Gap [au]:  0.45395154
 ALPHA OCC:   5
 BETA  OCC:   5
 
 ***HARTREE-FOCK ENERGY IN STEP   3 IS        -56.2041465119131800 [AU]
 
 Step comparison  Energy Drift [au]  DIIS error drift  Gradient drift
        2            8.7352E-04         2.2205E-04       1.3819E-02
 ======================================================================
 ITERATION STEP   4
 CPU time [min]:     0.569                   Wall time [min]:     0.017
 

 SCF control                  : diis
 Damping factor/level shift   : 0.000/0.000
 DIIS [start/end/frequency]   :   2 /200 /  1

 Constructing Fock-matrix...
 
 Pipek-Mezey localization...
 Step  Convergence
   1   0.019961471928
   2   0.017926292942
   3   0.000146710981
   4   0.000004026847
   5   0.000000194317
   6   0.000000013578
   7   0.000000001344
 CPU time [min]:     0.594                   Wall time [min]:     0.017
 
 Constructing local fitting domains...
 Local fitting domains are unchanged.
 
 First step of Coulomb + first step of exchange...
 Exchange contribution is evaluated for MOs 1 to 5.
   1% done.
  13% done.
  24% done.
  37% done.
  48% done.
  67% done.
  78% done.
  92% done.
 100% done.
 Fitting and assembly step of exchange...
 CPU time [min]:     0.691                   Wall time [min]:     0.019
 
 Second step of Coulomb...
   1% done.
  13% done.
  24% done.
  37% done.
  48% done.
  67% done.
  78% done.
  92% done.
 100% done.
 CPU time [min]:     0.721                   Wall time [min]:     0.019
 
 Gradient norm:      3.3509E-03
 DIIS is running in this iteration step.
 RMS of [F,P]:                                         0.00002936488316
[...]
   96    1     0.999988        8
   97    1     0.999964        8
   98    1     0.995532        8
   99    1     1.000000        8
  100    1     1.000000        8
  101    1     1.000000        8
  102    1     0.999993        8
  103    1     0.999986        8
  104    1     0.999890        8
  105    4     0.998218        9   10   11   12
  106    4     0.999979        9   10   11   12
  107    4     0.999991        9   10   11   12
  108    1     0.987903        9
  109    4     0.999954        9   10   11   12
  110    4     0.999924        9   10   11   12
  111    4     0.999970        9   10   11   12
  112    3     0.994049        9   11   12
  113    3     0.982402        9   10   12
  114    3     0.988207        9   10   11
  115    1     0.994534        9
  116    1     0.995075        9
  117    1     0.994020        9
  118    1     0.999181        9
  119    1     0.999638        9
  120    1     0.999648        9
  121    1     0.999397        9
  122    1     0.999975        9
  123    1     0.998625        9
  124    1     0.999404        9
  125    1     0.999420        9
  126    1     0.998990        9
  127    1     0.999963        9
  128    2     0.998503        9   10
  129    2     0.997695        9   10
  130    2     0.998664        9   10
  131    2     0.998783        9   10
  132    2     0.999393        9   10
  133    2     0.998800        9   10
  134    2     0.994463        9   10
  135    2     0.996513        9   10
  136    2     0.987602        9   10
  137    2     0.998501        9   11
  138    2     0.997695        9   11
  139    2     0.998664        9   11
  140    2     0.998699        9   11
  141    2     0.999175        9   11
  142    2     0.999096        9   11
  143    2     0.989618        9   11
  144    2     0.996217        9   11
  145    2     0.992940        9   11
  146    2     0.998503        9   12
  147    2     0.997696        9   12
  148    2     0.998664        9   12
  149    2     0.999506        9   12
  150    2     0.998752        9   12
  151    2     0.998736        9   12
  152    2     0.994706        9   12
  153    2     0.990811        9   12
  154    2     0.993403        9   12
 CPU time [min]:     0.024                   Wall time [min]:     0.003
 
 C1 point group was detected
 
 Constructing orbital domains...
 CPU time [min]:     0.033                   Wall time [min]:     0.003
 
 Dimensions of the primary domains:     Minimum / Average / Maximum
 
 Number of atoms in domain:                   4       4.0         4
 Number of atoms in occ BP domain:            2       3.5         4
 Number of atoms in PAO BP domain:            1       1.3         4
 Number of atomic orbitals:                  50      50.0        50
 Number of PAOs:                             32      41.8        45
 
 Prescreening pairs...
 CPU time [min]:     0.053                   Wall time [min]:     0.004
 
 Occupied LMO domain definition with Boughton-Pulay completeness:    0.9999900000
 
   MO  Natoms  Completeness   Atoms
    1    8     0.999998        5    6    7    8    9   10   11   12
    2    7     0.999999        6    7    8    9   10   11   12
    3    5     0.999999        7    9   10   11   12
    4    4     0.999997        9   10   11   12
 
 Executing the Boughton-Pulay algorithm...
  with occ MO completeness:    0.9850000000
 
   MO  Natoms  Completeness   Atoms
    1    1     0.998541        9
    2    2     0.999118        9   10
    3    2     0.999117        9   12
    4    2     0.999116        9   11
 CPU time [min]:     0.064                   Wall time [min]:     0.004
 
 Dimensions of the occupied LMO domains:  Minimum / Average / Maximum
 
 Number of atoms in domain:                   4       6.0         8
 Number of atomic orbitals:                  50      71.5       100
 
 Total number of pairs:   6
 Number of distant pairs: 0 (0.0%)
 Sum of multipole based pair energies:      0.0000000000
 
 CPU time [min]:     0.067                   Wall time [min]:     0.004
 Number of strong pairs: 6 (100.0%)
 chtol from minp:   1.000000000000000E-006
        1.93 MB memory is used for domain independent quantities
 
 Calculating the contribution of occupied LMOs...
    using local fitting domains
 
 MO:     1
 Number of atoms in domain:      12
    Number of atoms in PCD:      12
 Number of atomic orbitals:     150
 Number of atoms for local DF:   12
 Number of fitting functions:   423 (100.00%)
 Number of occupied orbitals:     4
 Number of virtual  orbitals:   145
 Number of Cholesky vectors:      9
 MP2 energy in ED [au]:          -0.050570996675
 Number of occupied LNOs:         4 (100.00%)
 Number of virtual  LNOs:        42  (28.97%)
 Number of Cholesky vectors:      8
 MP2 energy in LIS [au]:         -0.050569851840
 Correction for frozen LNO [au]: -0.000001144835     (0.002%)
 Number of NAFs:                135  (31.91%)
 CPU time [min]:     0.881                   Wall time [min]:     0.018
 

 Direct DF-CCSD(T) calculation
 
 Convergence criterion:  1.0E-05
 
 Number of occupied/virtual/auxiliary orbitals:     4    42   135
     10.61 MB is the minimal memory requirement for (T)
      6.70 MB is the minimal memory requirement for CCSD
 
 MP2 correlation energy [au]:       -0.200406239319
 
 LMP2 domain correlation energy contribution [au]:       -0.050569844209
 
 CPU time [min]:     0.934                   Wall time [min]:     0.019
 
 
 Starting CCSD iterations...
 
                     Residual norm       Correlation Energy
 Iteration  1        0.118929143625       -0.209920602491
 Iteration  2        0.033041096121       -0.214691882620
 Iteration  3        0.009968673429       -0.215650944344
 Iteration  4        0.002581428146       -0.215629487510
 Iteration  5        0.000730557560       -0.215643338383
 Iteration  6        0.000217050499       -0.215643855794
 Iteration  7        0.000062001608       -0.215642336083
 
 CCSD iteration has converged in  7 steps.
       19.19 MB memory was utilized by CCSD
 
 T1 diagnostic:      9.831E-03            D1 diagnostic:      2.353E-02
 
 T1 contribution [au]:                         0.000000000000
 CCSD correlation energy [au]:                -0.053807848710
 
 CPU time [min]:     1.051                   Wall time [min]:     0.021
 
 Calculation of (T) correction...
 
 Laplace threshold, nquadmin:  1.00E-03   4
 Number of quadrature points:    4
 
       10.72 MB memory is utilized for (T)

 0%       25%       50%       75%       100%
 |---------|---------|---------|---------| 
 
 (T) correction [au]:                   -0.001516146262
 CCSD(T) correlation energy [au]:       -0.055323994972
 
 CPU time [min]:     1.102                   Wall time [min]:     0.022
 
 MO:     2
 Number of atoms in domain:      12
    Number of atoms in PCD:      12
 Number of atomic orbitals:     150
 Number of atoms for local DF:   12
 Number of fitting functions:   423 (100.00%)
 Number of occupied orbitals:     4
 Number of virtual  orbitals:   145
 Number of Cholesky vectors:      9
 MP2 energy in ED [au]:          -0.049952847655
 Number of occupied LNOs:         4 (100.00%)
 Number of virtual  LNOs:        41  (28.28%)
 Number of Cholesky vectors:      8
 MP2 energy in LIS [au]:         -0.049951629216
 Correction for frozen LNO [au]: -0.000001218439     (0.002%)
 Number of NAFs:                135  (31.91%)
 CPU time [min]:     1.716                   Wall time [min]:     0.033
 

 Direct DF-CCSD(T) calculation
 
 Convergence criterion:  1.0E-05
 
 Number of occupied/virtual/auxiliary orbitals:     4    41   135
     10.12 MB is the minimal memory requirement for (T)
      6.50 MB is the minimal memory requirement for CCSD
 
 MP2 correlation energy [au]:       -0.200370086316
 
 LMP2 domain correlation energy contribution [au]:       -0.049951351165
 
 CPU time [min]:     1.767                   Wall time [min]:     0.033
 
 
 Starting CCSD iterations...
 
                     Residual norm       Correlation Energy
 Iteration  1        0.118914991907       -0.209888276196
 Iteration  2        0.033028526743       -0.214666230776
 Iteration  3        0.009927321755       -0.215616786352
 Iteration  4        0.002574123913       -0.215596452087
 Iteration  5        0.000729828278       -0.215610185295
 Iteration  6        0.000217327238       -0.215610873564
 Iteration  7        0.000062708781       -0.215609337569
 
 CCSD iteration has converged in  7 steps.
       17.85 MB memory was utilized by CCSD
 
 T1 diagnostic:      9.803E-03            D1 diagnostic:      2.346E-02
 
 T1 contribution [au]:                         0.000000000000
 CCSD correlation energy [au]:                -0.053950220913
 
 CPU time [min]:     1.884                   Wall time [min]:     0.035
 
 Calculation of (T) correction...
 
 Laplace threshold, nquadmin:  1.00E-03   4
 Number of quadrature points:    4
 
       10.23 MB memory is utilized for (T)

 0%       25%       50%       75%       100%
 |---------|---------|---------|---------| 
 
 (T) correction [au]:                   -0.001355609898
 CCSD(T) correlation energy [au]:       -0.055305830811
 
 CPU time [min]:     1.934                   Wall time [min]:     0.036
 
 MO:     3
 Number of atoms in domain:      12
    Number of atoms in PCD:      12
 Number of atomic orbitals:     150
 Number of atoms for local DF:   12
 Number of fitting functions:   423 (100.00%)
 Number of occupied orbitals:     4
 Number of virtual  orbitals:   145
 Number of Cholesky vectors:      9
 MP2 energy in ED [au]:          -0.049952204073
 Number of occupied LNOs:         4 (100.00%)
 Number of virtual  LNOs:        41  (28.28%)
 Number of Cholesky vectors:      8
 MP2 energy in LIS [au]:         -0.049950802193
 Correction for frozen LNO [au]: -0.000001401881     (0.003%)
 Number of NAFs:                135  (31.91%)
 CPU time [min]:     2.631                   Wall time [min]:     0.048
 

 Direct DF-CCSD(T) calculation
 
 Convergence criterion:  1.0E-05
 
 Number of occupied/virtual/auxiliary orbitals:     4    41   135
     10.12 MB is the minimal memory requirement for (T)
      6.50 MB is the minimal memory requirement for CCSD
 
 MP2 correlation energy [au]:       -0.200368946496
 
 LMP2 domain correlation energy contribution [au]:       -0.049950533263
 
 CPU time [min]:     2.684                   Wall time [min]:     0.049
 
 
 Starting CCSD iterations...
 
                     Residual norm       Correlation Energy
 Iteration  1        0.118911330376       -0.209887846263
 Iteration  2        0.033026237241       -0.214667133047
 Iteration  3        0.009919140589       -0.215616063150
 Iteration  4        0.002569233330       -0.215595679724
 Iteration  5        0.000725628801       -0.215609504766
 Iteration  6        0.000214582828       -0.215610136180
 Iteration  7        0.000061310028       -0.215608649885
 
 CCSD iteration has converged in  7 steps.
       17.85 MB memory was utilized by CCSD
 
 T1 diagnostic:      9.793E-03            D1 diagnostic:      2.343E-02
 
 T1 contribution [au]:                         0.000000000000
 CCSD correlation energy [au]:                -0.053949331884
 
 CPU time [min]:     2.801                   Wall time [min]:     0.051
 
 Calculation of (T) correction...
 
 Laplace threshold, nquadmin:  1.00E-03   4
 Number of quadrature points:    4
 
       10.23 MB memory is utilized for (T)

 0%       25%       50%       75%       100%
 |---------|---------|---------|---------| 
 
 (T) correction [au]:                   -0.001355566143
 CCSD(T) correlation energy [au]:       -0.055304898028
 
 CPU time [min]:     2.850                   Wall time [min]:     0.051
 
 MO:     4
 Number of atoms in domain:      12
    Number of atoms in PCD:      12
 Number of atomic orbitals:     150
 Number of atoms for local DF:   12
 Number of fitting functions:   423 (100.00%)
 Number of occupied orbitals:     4
 Number of virtual  orbitals:   145
 Number of Cholesky vectors:      9
 MP2 energy in ED [au]:          -0.049950709308
 Number of occupied LNOs:         4 (100.00%)
 Number of virtual  LNOs:        41  (28.28%)
 Number of Cholesky vectors:      8
 MP2 energy in LIS [au]:         -0.049949374817
 Correction for frozen LNO [au]: -0.000001334492     (0.003%)
 Number of NAFs:                135  (31.91%)
 CPU time [min]:     3.475                   Wall time [min]:     0.062
 

 Direct DF-CCSD(T) calculation
 
 Convergence criterion:  1.0E-05
 
 Number of occupied/virtual/auxiliary orbitals:     4    41   135
     10.12 MB is the minimal memory requirement for (T)
      6.50 MB is the minimal memory requirement for CCSD
 
 MP2 correlation energy [au]:       -0.200371273340
 
 LMP2 domain correlation energy contribution [au]:       -0.049949106680
 
 CPU time [min]:     3.526                   Wall time [min]:     0.063
 
 
 Starting CCSD iterations...
 
                     Residual norm       Correlation Energy
 Iteration  1        0.118911900307       -0.209889588576
 Iteration  2        0.033022951910       -0.214670521491
 Iteration  3        0.009906904049       -0.215616267884
 Iteration  4        0.002562283514       -0.215596503511
 Iteration  5        0.000723350559       -0.215610287561
 Iteration  6        0.000213578582       -0.215611065486
 Iteration  7        0.000061221912       -0.215609599669
 
 CCSD iteration has converged in  7 steps.
       17.85 MB memory was utilized by CCSD
 
 T1 diagnostic:      9.768E-03            D1 diagnostic:      2.334E-02
 
 T1 contribution [au]:                         0.000000000000
 CCSD correlation energy [au]:                -0.053947432420
 
 CPU time [min]:     3.649                   Wall time [min]:     0.065
 
 Calculation of (T) correction...
 
 Laplace threshold, nquadmin:  1.00E-03   4
 Number of quadrature points:    4
 
       10.23 MB memory is utilized for (T)

 0%       25%       50%       75%       100%
 |---------|---------|---------|---------| 
 
 (T) correction [au]:                   -0.001355554002
 CCSD(T) correlation energy [au]:       -0.055302986422
 
 CPU time [min]:     3.697                   Wall time [min]:     0.066
 
 **********************************************************************
 Dimensions of the extended domains:    Minimum / Average / Maximum
 
 Number of atoms in domain:                  12      12.0        12
 Number of atomic orbitals:                 150     150.0       150
 Number of fitting functions:               423     423.0       423
 Number of occupied localized MOs:            4       4.0         4
 Number of PAOs:                            145     145.0       145
 Number of occupied LNOs:                     4       4.0         4
 Number of virtual  LNOs:                    41      41.2        42
 Number of NAFs:                            135     135.0       135
 
 **********************************************************************
 Distant (and weak) pair contributions, corrections
 
 Sum of pair energies [au]:                     0.000000000000    (0.000%)
 Sum of energy corrections [au]:               -0.000005099646    (0.003%)
 Pair energies + LNO corrections [au]:         -0.000005099646
 Sum of LMP2 contributions [au]:               -0.200426757711
 
 **********************************************************************
  Time of manipulations in the EDs:      max CPU/Wall [s]  all CPU/Wall [min]
 
 PD construction & multipole pair E       3.91     0.09     0.07     0.00
 Construct MO basis of the ED             3.63     0.06     0.11     0.00
 (mu,nu|P) evaluation & trf 2 (ai|P)      4.23     0.07     0.25     0.00
 Evaluate MP2 energy of the ED            0.19     0.00     0.01     0.00
 Transformations to the LNO basis         0.76     0.01     0.05     0.00
 Build W_PQ (Jai or Jpi part)             1.36     0.04     0.03     0.00
 Evaluate MP2 energy of the LIS           0.17     0.00     0.01     0.00
 (mu,nu|P) evaluation & trf 2 J(abQ)     29.01     0.54     1.72     0.03
 Total of the above for all EDs          39.36     0.72     2.19     0.04
 
 **********************************************************************
 Maximum memory requirement [MB]:       
 
 PD construction & multipole pair E          2.6
 AO integral evaluation in the EDs         315.2
 (mu,nu|P) evaluation & trf 2 (aI|P)       333.1
 Evaluate MP2 energy in the EDs             13.9
 Transformation to the LNO basis             6.2
 (mu,nu|P) to Jab transformation           320.0
 Evaluate MP2 energy in the LIS              8.9
 Minimum requirement for LIS CCSD            6.7
 Actually allocated  for LIS CCSD           19.2
 Minimum requirement for LIS (T)            10.6
 Actually allocated  for LIS (T)            10.7
 
 ======================================================================
 ======================================================================
 
 
 
 ======================================================================
 ======================================================================
 
 Final local CC results:
 
 Minimum number of correlated electrons:         8       (100.0%)
 Maximum number of correlated electrons:         8       (100.0%)
 Average number of correlated electrons:         8.0     (100.0%)
 Minimum number of correlated orbitals:         45       ( 30.2%)
 Maximum number of correlated orbitals:         46       ( 30.9%)
 Average number of correlated orbitals:         45.2     ( 30.4%)
 
 CPU time for integral calculations [min]:                  0.312
 Wall time for integral calculations [min]:                 0.007
 
 CPU time for SCF calculation [min]:                        2.297
 Wall time for SCF calculation [min]:                       0.058
 
 CPU time for orbital localization [min]:                   0.003
 Wall time for orbital localization [min]:                  0.016
 
 CPU time for integral transformations [min]:               2.875
 Wall time for integral transformations [min]:              0.052
 
 Reference energy [au]:                                   -56.204299436141
 
 LMP2 correlation energy [au]:                             -0.200426757711
 Total LMP2 energy [au]:                                  -56.404726193852
 
 Total MP2 correction for dropped NAFs [au]:               -0.000000822747
 Total MP2 correction [au]:                                -0.000005922393
 
 CPU time for CCSD calculations [min]:                      0.648
 Total CPU time for CCSD [min]:                             6.135
 Wall time for CCSD calculations [min]:                     0.011
 Total wall time for CCSD [min]:                            0.144
 
 CCSD correlation energy [au]:                             -0.215654833928
 Total CCSD energy [au]:                                  -56.419954270069
 CCSD correlation energy + 0.5 MP2 corrections [au]:       -0.215657795124
 Total LNO-CCSD energy with MP2 corrections [au]:         -56.419957231265
 
 CPU time for (T) corrections [min]:                        0.196
 Total CPU time for CCSD(T) [min]:                          6.331
 Wall time for (T) corrections [min]:                       0.004
 Total wall time for CCSD(T) [min]:                         0.148
 
 Total (T) correlation energy contribution [au]:           -0.005582876305
 Total (T) correlation energy+0.5 MP2 correction [au]:     -0.005585837502
 CCSD(T) correlation energy [au]:                          -0.221237710233
 Total CCSD(T) energy [au]:                               -56.425537146374
 CCSD(T) correlation energy + MP2 corrections [au]:        -0.221243632626
 Total LNO-CCSD(T) energy with MP2 corrections [au]:      -56.425543068767
 
 ======================================================================
 ======================================================================
 
 ************************ 2026-02-26 23:14:03 *************************
                      Normal termination of mrcc.
 **********************************************************************
