 **********************************************************************
                          MRCC program system
 **********************************************************************
 
                              Written by
     Mihaly Kallay, Peter R. Nagy, David Mester, Laszlo Gyevi-Nagy,
        Jozsef Csoka, P. Bernat Szabo, Zoltan Rolik, Gyula Samu,
     Jozsef Csontos, Bence Hegely, Adam Ganyecz, Istvan Ladjanszki,
       Lorant Szegedy, Bence Ladoczki, Klara Petrov, Mate Farkas,
                    Pal D. Mezei, and Reka A. Horvath
 
        Department of Physical Chemistry and Materials Science
            Budapest University of Technology and Economics
                  Budapest P.O.Box 91, H-1521 Hungary
 
                              www.mrcc.hu
 
                     Release date: August 28, 2023

 ************************ 2026-02-26 16:01:06 *************************
 Executing minp...

 Reading input from MINP...
 
 Input file:
 
charge=0
mult=1
calc=LNO-CCSD(T)
basis=aug-cc-pVQZ
symm=off
verbosity=3
unit=angs
scfalg=locfit1
scfmaxit=200
scftol=8
basis_sm=def2-SVP
usedisk=0
aocd=extra
chtol=1d-6
iesttol=0.001
scfiguess=small
lcorthr=vtight
mem=46GB
geom=xyz
4

H      0.80328119605    0.26945480888   -0.52331519112
H      0.26953119605   -0.52331519112    0.80322480888
H     -0.52324880395    0.80323480888    0.26946480888
N     -0.03954880395   -0.03953519112   -0.03953519112
 
 
 Checking keyword combinations...
 
 Keywords:
 
 active=none
 agrid=ld0006-ld0590
 agrid_pssp=ld0006-ld0194
 agrid_pssp_sm=ld0006-ld0074
 basis=aug-cc-pvqz
 basis_sm=def2-svp
 basopt=off
 bfbasis=none
 bfgsmem=10
 bfgstol=1.0d-3
 boysalg=jacobi
 bpcompo=0.985
 bpcompv=0.98
 bpdfo=0.985
 bpocc=0.99999d0
 bppdo=0.999d0
 bppdv=0.98
 bpedo=0.99999d0
 bpedv=0.995d0
 calc=ccsd(t)
 ccmaxit=50
 ccprog=ccsd
 ccsdalg=dfdirect
 ccsdmkl=seq
 ccsdrest=off
 ccsdthreads=2
 cctol=5
 charge=0
 cialg=direct
 ciguess=off
 cmpgrp=auto
 comprest=off
 coord_sys=ric
 core=frozen
 corembed=off
 csapprox=off
 cvs=off
 dboc=off
 delocsomofact=
 dendec=cholesky
 dens=0
 denscorr=0
 dfalg=lineq
 dfbasis_cab=none
 dfbasis_cor=auto
 dfbasis_scf=auto
 dfbasis_scf_sm=auto
 dfintran=drpa
 dft=off
 dhexc=adc(2)
 diag=david
 docc=
 domrad=10.d0
 drpaalg=auto
 dual=off
 dual_df=off
 ecp=auto
 edisp=off
 edisp_embed=off
 embed=off
 epairestfact=off
 epairscale=1.d0
 etemp=300
 epert=none
 eps=
 espcharge=off
 excrad=1.0
 excrad_fin=0.100000000D-02
 fitting=coulomb
 fmm=off
 fmmord=8
 fnonorb=
 freq=off
 gamma=1.4d0
 gauss=spher
 geom=xyz
 gopt=off
 ghost=none
 gtol=7
 grdens=off
 grid=auto
 grid_sm=auto
 gridbatch_cos=2000
 grtol=10
 guido_ct=off
 hamilton=dc
 iface=none
 intalg=auto
 ip_ea=off
 itol=12
 laptol=1.d-3
 lccoporder=lccfirst
 lcorthr=vtight
 lccrest=off
 ldfgrad_tol=8
 lmp2dens=on
 lnoepso=1e-6
 lnoepsv=1e-7
 localcc=2021
 localcorrsymm=off
 locintrf=direct
 mact=
 maxact=off
 maxdim=200
 maxex=0
 maxmicroit=100
 mcscfiguess=hf
 mem=46gb
 mmprog=
 molden=on
 mpitasks=1
 mulmet=3
 mult=1
 nab=off
 nacto=0
 nactv=0
 naf_amp=3.16d-3
 naf_cor=1e-3
 naf_f12=off
 naf_scf=off
 nafalg=albe
 nafdens=off
 naftyp=jpq
 nchol=auto
 ndeps=1e-3
 nstate=1
 nsing=0
 nto=off
 ntrip=0
 num_grad=off
 occ=
 occri=off
 oniom=off
 oniom_eechg=off
 oniom_pcm=off
 oniom_qcorr=off
 optalg=
 optmaxit=50
 optetol=1e-6
 optex=0
 optgtol=1e-4
 optstol=1e-3
 orblocc=off
 orbloce=off
 orbloco=boys
 orblocv=pao
 orblocguess=cholesky
 osveps=-1.d0
 ovirt=off
 ovltol=1e-7
 ovosnorb=80.0
 pao_subsys_tol=1e-3
 pcm=off
 popul=off
 pressure=100000
 pssp=off
 ptfreq=0.0
 ptthreads=2
 qmreg=
 qmmm=off
 qro=off
 qscf=off
 redcost_exc=off
 redcost_tddft=0.985d0
 refdet=none
 rest=0
 rgrid=log3
 rism=off
 rohfcore=standard
 rohftype=semicanonical
 scfalg=locfit1
 scf_conv=auto
 scfdamp=0.0d0
 scfdamp_mode=off
 scfdamp_end=200
 scfdamp_dampstep=0.d0
 scfdamp_dtol=0.0d0
 scfdamp_maxfact=0.0d0
 scfdamp_minfact=0.0d0
 scfdiis=on
 scfdiis_dtol=0.0d0
 scfdiis_end=200
 scfdiis_start=2
 scfdiis_step=1
 scfdiis_watch=off
 scfdiis_wrange=10
 scfdiis_wlimit=5
 scfdiis_delmax=2
 scfdtol=9
 scfext=10
 scfguessdens=
 scfiguess=small
 scfloc=pm
 scflshift=0.20
 scflshift_end=8
 scflshift_dtol=0.0
 scflshift_gaptol=0.20
 scfmaxit=200
 scftype=
 scftol=8
 scspe=1.d0
 scsph=1.d0
 scsps=1.2d0
 scsps_t=1.2d0
 scspt=0.33333333333333
 scspt_t=0.33333333333333
 scspv=1.d0
 spairtol=-1.d0
 sqmprog=
 subminp=top
 symm=0
 talg=lapl
 temp=298.15
 test=off
 theodore=off
 tlmo=0.999
 tpao=0.94
 tprint=off
 uncontract=off
 unit=angs
 usedisk=0
 verbosity=3
 wpairtol=1.d-6
 
 Calculating integrals for small-basis SCF...

 ************************ 2026-02-26 16:01:07 *************************
 Executing integ...

 Allocation of 46.0 Gbytes of memory...
 
 
 Number of atoms:                  4
 Charge:                           0
 Number of electrons:             10
 Number of core electrons:         2
 Spin multiplicity:                1
 
                 Cartesian coordinates [bohr]      Atomic mass [AMU]  Z
   1  H     1.51798146    0.50919579   -0.98892239     1.007825       1
   2  H     0.50934014   -0.98892239    1.51787491     1.007825       1
   3  H    -0.98879693    1.51789380    0.50921469     1.007825       1
   4  N    -0.07473641   -0.07471068   -0.07471068    14.003074       7
 
 This molecule is an asymmetric top.
 
 Rotational constants [cm-1]: 
      9.818547075435      9.818369386061      6.257416881345
 
 Point group: C1  
 Computational point group: C1  
 
 Cartesian coordinates in standard orientation [bohr]
   1  H     0.36472399    1.74620825    0.59936224
   2  H     1.32998857   -1.18875552    0.59942989
   3  H    -1.69442622   -0.55720763    0.59953850
   4  N    -0.00002061   -0.00001764   -0.12942891
 
 Nuclear repulsion energy [au]:         11.868945825089
 
Warning: for H atoms in the case of dfbasis_scf=auto the AO basis is set as dfbasis_scf instead of def2-qzvp(pd)-ri-jk because the AO basis is larger. Set the dfbasis_scf=def2-qzvp(pd)-ri-jk in MINP if that is desired.
 
 
 Basis set information:
 
 Maximum angular momentum: g
 Maximum number of contracted Gaussians:   10
 Maximum number of primitive Gaussians:    14
 Spherical harmonic GTOs are used.
 
 
 Conventional basis set:
 
   1  H  def2-svp [ 4s 1p | 2s 1p ]
   2  H  def2-svp [ 4s 1p | 2s 1p ]
   3  H  def2-svp [ 4s 1p | 2s 1p ]
   4  N  def2-svp [ 7s 4p 1d | 3s 2p 1d ]
 
 Basis functions:
            1             2             3             4             5             6             7             8             9            10
    0    1H1s          1H2s          1H1pz         1H1py         1H1px         2H1s          2H2s          2H1pz         2H1py         2H1px     
    1    3H1s          3H2s          3H1pz         3H1py         3H1px         4N1s          4N2s          4N3s          4N1pz         4N1py     
    2    4N1px         4N2pz         4N2py         4N2px         4N1d-2        4N1d-1        4N1d0         4N1d+1        4N1d+2    
 
 Maximum number of basis functions per shell:    6
 Total number of basis functions:     29
 
 
 Fitting basis set for the SCF calculation:
 
   1  H  def2-qzvpp [ 7s 3p 2d 1f | 4s 3p 2d 1f ]
   2  H  def2-qzvpp [ 7s 3p 2d 1f | 4s 3p 2d 1f ]
   3  H  def2-qzvpp [ 7s 3p 2d 1f | 4s 3p 2d 1f ]
   4  N  def2-qzvpp-ri-jk [ 14s 10p 6d 2f 1g | 10s 8p 4d 2f 1g ]
 
 Basis functions:
            1             2             3             4             5             6             7             8             9            10
    0    1H1s          1H2s          1H3s          1H4s          1H1pz         1H1py         1H1px         1H2pz         1H2py         1H2px     
    1    1H3pz         1H3py         1H3px         1H1d-2        1H1d-1        1H1d0         1H1d+1        1H1d+2        1H2d-2        1H2d-1    
    2    1H2d0         1H2d+1        1H2d+2        1H1f-3        1H1f-2        1H1f-1        1H1f0         1H1f+1        1H1f+2        1H1f+3    
    3    2H1s          2H2s          2H3s          2H4s          2H1pz         2H1py         2H1px         2H2pz         2H2py         2H2px     
    4    2H3pz         2H3py         2H3px         2H1d-2        2H1d-1        2H1d0         2H1d+1        2H1d+2        2H2d-2        2H2d-1    
    5    2H2d0         2H2d+1        2H2d+2        2H1f-3        2H1f-2        2H1f-1        2H1f0         2H1f+1        2H1f+2        2H1f+3    
    6    3H1s          3H2s          3H3s          3H4s          3H1pz         3H1py         3H1px         3H2pz         3H2py         3H2px     
    7    3H3pz         3H3py         3H3px         3H1d-2        3H1d-1        3H1d0         3H1d+1        3H1d+2        3H2d-2        3H2d-1    
    8    3H2d0         3H2d+1        3H2d+2        3H1f-3        3H1f-2        3H1f-1        3H1f0         3H1f+1        3H1f+2        3H1f+3    
    9    4N1s          4N2s          4N3s          4N4s          4N5s          4N6s          4N7s          4N8s          4N9s          4N10s     
   10    4N1pz         4N1py         4N1px         4N2pz         4N2py         4N2px         4N3pz         4N3py         4N3px         4N4pz     
   11    4N4py         4N4px         4N5pz         4N5py         4N5px         4N6pz         4N6py         4N6px         4N7pz         4N7py     
   12    4N7px         4N8pz         4N8py         4N8px         4N1d-2        4N1d-1        4N1d0         4N1d+1        4N1d+2        4N2d-2    
   13    4N2d-1        4N2d0         4N2d+1        4N2d+2        4N3d-2        4N3d-1        4N3d0         4N3d+1        4N3d+2        4N4d-2    
   14    4N4d-1        4N4d0         4N4d+1        4N4d+2        4N1f-3        4N1f-2        4N1f-1        4N1f0         4N1f+1        4N1f+2    
   15    4N1f+3        4N2f-3        4N2f-2        4N2f-1        4N2f0         4N2f+1        4N2f+2        4N2f+3        4N1g-4        4N1g-3    
   16    4N1g-2        4N1g-1        4N1g0         4N1g+1        4N1g+2        4N1g+3        4N1g+4    
 
 Maximum number of basis functions per shell:   24
 Total number of basis functions:    167
 
 
 Initializing the SAD routines for the initial guess...
 Checking the files required for the initial guess...
 Density files have not been found for the initial guess.
 Generating SCFDENSITIES.H.def2-svp.0
 Generating SCFDENSITIES.N.def2-svp.0
 CPU time [min]:     0.214                   Wall time [min]:     0.132
 
 Character table for point group C1:
 
          E  
    A     1
 
 Number of basis functions per irrep:
    A      29
 
 
 Calculation of overlap integrals...
 CPU time [min]:     0.219                   Wall time [min]:     0.132
 
 Calculation of the square root of the overlap matrix...
 Minimum eigenvalue of the overlap matrix: 0.292877E-01
 CPU time [min]:     0.232                   Wall time [min]:     0.132
 
 Calculation of kinetic energy integrals...
 CPU time [min]:     0.233                   Wall time [min]:     0.132
 Calculation of dipole moment integrals...
 CPU time [min]:     0.234                   Wall time [min]:     0.132
 Calculation of nuclear attraction integrals...
 CPU time [min]:     0.235                   Wall time [min]:     0.132
 
 Calculation of prescreening integrals...
 CPU time [min]:     0.240                   Wall time [min]:     0.132
 
 Calculation of two-center Coulomb integrals...
   1% done.
  13% done.
  25% done.
  36% done.
  55% done.
  74% done.
  90% done.
 100% done.
 CPU time [min]:     0.251                   Wall time [min]:     0.133
 
 Cholesky decomposition of the two-center matrix...
 Reciprocal of the condition number:  0.155759E-04
 CPU time [min]:     0.269                   Wall time [min]:     0.133
 
 
 Running small-basis SCF...

 ************************ 2026-02-26 16:01:15 *************************
 Executing scf...

 @scfsetup: integrals calculated directly
            mrcc/integ direct run
 @scfsetup: calculating on full matrices
            not using symmetry adapted basis
 @scfsetup: diis switched on
 @scfsetup: number of steps to extrapolate from  10
 @scfsetup: tolerance in energy deviation    0.100000E-07
            tolerance in density deviation    0.100000E-08
 @scfsetup: maximum number of iterations: 200
 @scfsetup: restricted closed shell hf calc
 @scfsetup: starting scf from superposition of atomic densities
 @scfsetup: occupation set:
            from initial orbitals
 @scfsetup: Parameter-set for SCF acceleration: normal
 @scfsetup: diis runs from iteration:   2
 @scfsetup: diis runs to iteration: 200
 @scfsetup: diis runs in every iteration
 @scfsetup: diiswatch is disabled                   
 @scfsetup: diis dtol criteria to switch on:      0.0000E+00
           (or the iteration number below is reached)
 @scfsetup: static damping scheme
            iteration step criteria to turn damping off: 3
 @scfsetup: dynamic level shifting
            tolarance in HOMO-LUMO gap:  0.200
            tolarance in density deviation:     0.0000E+00
            iteration step criteria to turn level shifting off: 8
 Allocation of 46.0 Gbytes of memory...
 ======================================================================
 ITERATION STEP   1
 CPU time [min]:     0.013                   Wall time [min]:     0.017
 

 SCF control                  : initial
 Damping factor/level shift   : 0.000/0.200
 DIIS [start/end/frequency]   :   2 /200 /  1

 Constructing Fock-matrix...
 
 Pipek-Mezey localization...
 Step  Convergence
   1   0.821934970540
   2   0.009150200109
   3   0.000000024599
   4   0.000000000004
 CPU time [min]:     0.041                   Wall time [min]:     0.017
 
 Constructing local fitting domains...
 Maximum number of atoms in fitting domains:    4
 Average number of atoms in fitting domains:    4.0
 
 First step of Coulomb + first step of exchange...
 Exchange contribution is evaluated for MOs 1 to 5.
   1% done.
  13% done.
  28% done.
  39% done.
  69% done.
 100% done.
 Fitting and assembly step of exchange...
 CPU time [min]:     0.097                   Wall time [min]:     0.018
 
 Second step of Coulomb...
   1% done.
  13% done.
  28% done.
  39% done.
  69% done.
 100% done.
 CPU time [min]:     0.107                   Wall time [min]:     0.018
 
 Gradient norm:      2.3643E+00
 RMS of [F,P]:                                         0.07486204860595
 RMS of difference density:                            0.02760052999359
 Gap [au]:  0.68428253
 ALPHA OCC:   5
 BETA  OCC:   5
 
 ***HARTREE-FOCK ENERGY IN STEP   1 IS        -55.8537107290801700 [AU]
 ======================================================================
 ITERATION STEP   2
 CPU time [min]:     0.118                   Wall time [min]:     0.018
 

 SCF control                  : diis
 Damping factor/level shift   : 0.000/0.000
 DIIS [start/end/frequency]   :   2 /200 /  1

 Constructing Fock-matrix...
 
 Pipek-Mezey localization...
 Step  Convergence
   1   0.020353819919
   2   0.020299177881
   3   0.000002055745
   4   0.000000001160
 CPU time [min]:     0.144                   Wall time [min]:     0.019
 
 Constructing local fitting domains...
 Maximum number of atoms in fitting domains:    4
 Average number of atoms in fitting domains:    4.0
 
 First step of Coulomb + first step of exchange...
 Exchange contribution is evaluated for MOs 1 to 5.
   1% done.
  13% done.
  28% done.
  39% done.
  69% done.
 100% done.
 Fitting and assembly step of exchange...
 CPU time [min]:     0.196                   Wall time [min]:     0.020
 
 Second step of Coulomb...
   1% done.
  13% done.
  28% done.
  39% done.
  69% done.
 100% done.
 CPU time [min]:     0.206                   Wall time [min]:     0.020
 
 Gradient norm:      3.2038E-01
 DIIS is running in this iteration step.
 RMS of [F,P]:                                         0.01604635564835
 RMS of difference density:                            0.01267319554487
 Gap [au]:  0.55359330
 ALPHA OCC:   5
 BETA  OCC:   5
 
 ***HARTREE-FOCK ENERGY IN STEP   2 IS        -56.1233877293020598 [AU]
 
 Step comparison  Energy Drift [au]  DIIS error drift  Gradient drift
        1            2.6968E-01         5.8816E-02       2.0439E+00
        2            5.6123E+01         1.0000E-09       2.0439E+00
 ======================================================================
 ITERATION STEP   3
 CPU time [min]:     0.221                   Wall time [min]:     0.020
 

 SCF control                  : diis
 Damping factor/level shift   : 0.000/0.000
 DIIS [start/end/frequency]   :   2 /200 /  1

 Constructing Fock-matrix...
 
 Pipek-Mezey localization...
 Step  Convergence
   1   0.020168074214
   2   0.020281958521
   3   0.000001825421
   4   0.000000000194
 CPU time [min]:     0.247                   Wall time [min]:     0.020
 
 Constructing local fitting domains...
 Local fitting domains are unchanged.
 
 First step of Coulomb + first step of exchange...
 Exchange contribution is evaluated for MOs 1 to 5.
   1% done.
  13% done.
  28% done.
  39% done.
  69% done.
 100% done.
 Fitting and assembly step of exchange...
 CPU time [min]:     0.298                   Wall time [min]:     0.021
 
 Second step of Coulomb...
   1% done.
  13% done.
  28% done.
  39% done.
  69% done.
 100% done.
 CPU time [min]:     0.308                   Wall time [min]:     0.021
 
 Gradient norm:      1.2627E-01
 DIIS is running in this iteration step.
 RMS of [F,P]:                                         0.00756552218362
 RMS of difference density:                            0.00383725135799
 Gap [au]:  0.60435329
 ALPHA OCC:   5
 BETA  OCC:   5
 
 ***HARTREE-FOCK ENERGY IN STEP   3 IS        -56.1429859020536242 [AU]
 
 Step comparison  Energy Drift [au]  DIIS error drift  Gradient drift
        2            1.9598E-02         8.4808E-03       1.9412E-01
 ======================================================================
 ITERATION STEP   4
 CPU time [min]:     0.322                   Wall time [min]:     0.022
 

 SCF control                  : diis
 Damping factor/level shift   : 0.000/0.000
 DIIS [start/end/frequency]   :   2 /200 /  1

 Constructing Fock-matrix...
 
 Pipek-Mezey localization...
 Step  Convergence
   1   0.019964773332
   2   0.020286210468
   3   0.000001770875
   4   0.000000001245
 CPU time [min]:     0.348                   Wall time [min]:     0.022
 
 Constructing local fitting domains...
 Local fitting domains are unchanged.
 
 First step of Coulomb + first step of exchange...
 Exchange contribution is evaluated for MOs 1 to 5.
   1% done.
  13% done.
  28% done.
  39% done.
  69% done.
 100% done.
 Fitting and assembly step of exchange...
 CPU time [min]:     0.398                   Wall time [min]:     0.023
 
 Second step of Coulomb...
   1% done.
  13% done.
  28% done.
  39% done.
  69% done.
 100% done.
 CPU time [min]:     0.408                   Wall time [min]:     0.023
 
 Gradient norm:      2.4281E-02
 DIIS is running in this iteration step.
 RMS of [F,P]:                                         0.00094435254727
 RMS of difference density:                            0.00095263040959
 Gap [au]:  0.59672649
 ALPHA OCC:   5
 BETA  OCC:   5
 
 ***HARTREE-FOCK ENERGY IN STEP   4 IS        -56.1482078585047191 [AU]
 
 Step comparison  Energy Drift [au]  DIIS error drift  Gradient drift
        3            5.2220E-03         6.6212E-03       1.0198E-01
 ======================================================================
 ITERATION STEP   5
 CPU time [min]:     0.436                   Wall time [min]:     0.023
 

 SCF control                  : diis
 Damping factor/level shift   : 0.000/0.000
 DIIS [start/end/frequency]   :   2 /200 /  1

 Constructing Fock-matrix...
 
 Pipek-Mezey localization...
 Step  Convergence
   1   0.029926556469
   2   0.030275100832
   3   0.000024417234
   4   0.000000109834
   5   0.000000000261
 CPU time [min]:     0.462                   Wall time [min]:     0.024
 
 Constructing local fitting domains...
 Local fitting domains are unchanged.
 
 First step of Coulomb + first step of exchange...
 Exchange contribution is evaluated for MOs 1 to 5.
   1% done.
  13% done.
  28% done.
  39% done.
  69% done.
 100% done.
 Fitting and assembly step of exchange...
 CPU time [min]:     0.512                   Wall time [min]:     0.025
 
 Second step of Coulomb...
   1% done.
  13% done.
  28% done.
  39% done.
  69% done.
 100% done.
 CPU time [min]:     0.522                   Wall time [min]:     0.025
 
 Gradient norm:      2.0338E-03
 DIIS is running in this iteration step.
 RMS of [F,P]:                                         0.00015710551549
 RMS of difference density:                            0.00013093270838
 Gap [au]:  0.59699277
 ALPHA OCC:   5
 BETA  OCC:   5
 
 ***HARTREE-FOCK ENERGY IN STEP   5 IS        -56.1483695851859181 [AU]
 
 Step comparison  Energy Drift [au]  DIIS error drift  Gradient drift
        4            1.6173E-04         7.8725E-04       2.2247E-02
 ======================================================================
 ITERATION STEP   6
 CPU time [min]:     0.536                   Wall time [min]:     0.025
 

 SCF control                  : diis
 Damping factor/level shift   : 0.000/0.000
 DIIS [start/end/frequency]   :   2 /200 /  1

 Constructing Fock-matrix...
 
 Pipek-Mezey localization...
 Step  Convergence
   1   0.045159124151
   2   0.044137206010
   3   0.000002943414
   4   0.000000000327
 CPU time [min]:     0.562                   Wall time [min]:     0.025
 
 Constructing local fitting domains...
 Local fitting domains are unchanged.
 
 First step of Coulomb + first step of exchange...
 Exchange contribution is evaluated for MOs 1 to 5.
   1% done.
  13% done.
  28% done.
  39% done.
  69% done.
 100% done.
 Fitting and assembly step of exchange...
 CPU time [min]:     0.612                   Wall time [min]:     0.026
 
 Second step of Coulomb...
   1% done.
  13% done.
  28% done.
  39% done.
  69% done.
 100% done.
 CPU time [min]:     0.621                   Wall time [min]:     0.026
 
 Gradient norm:      3.1558E-04
 DIIS is running in this iteration step.
 RMS of [F,P]:                                         0.00001580972021
 RMS of difference density:                            0.00001245646002
 Gap [au]:  0.59698555
 ALPHA OCC:   5
 BETA  OCC:   5
 
 ***HARTREE-FOCK ENERGY IN STEP   6 IS        -56.1483729278159700 [AU]
 
 Step comparison  Energy Drift [au]  DIIS error drift  Gradient drift
        5            3.3426E-06         1.4130E-04       1.7182E-03
 ======================================================================
 ITERATION STEP   7
 CPU time [min]:     0.635                   Wall time [min]:     0.027
 

 SCF control                  : diis
 Damping factor/level shift   : 0.000/0.000
 DIIS [start/end/frequency]   :   2 /200 /  1

 Constructing Fock-matrix...
 
 Pipek-Mezey localization...
 Step  Convergence
   1   0.045140809486
   2   0.044161384651
   3   0.000005335029
   4   0.000000005225
   5   0.000000000045
   6   0.000000000000
 CPU time [min]:     0.661                   Wall time [min]:     0.027
 
 Constructing local fitting domains...
 Local fitting domains are unchanged.
 
 First step of Coulomb + first step of exchange...
 Exchange contribution is evaluated for MOs 1 to 5.
   1% done.
  13% done.
  28% done.
  39% done.
  69% done.
 100% done.
 Fitting and assembly step of exchange...
 CPU time [min]:     0.712                   Wall time [min]:     0.028
 
 Second step of Coulomb...
   1% done.
  13% done.
  28% done.
  39% done.
  69% done.
 100% done.
 CPU time [min]:     0.722                   Wall time [min]:     0.028
 
 Gradient norm:      7.2861E-05
 DIIS is running in this iteration step.
 RMS of [F,P]:                                         0.00000232055058
 RMS of difference density:                            0.00000235834755
 Gap [au]:  0.59697679
 ALPHA OCC:   5
 BETA  OCC:   5
 
 ***HARTREE-FOCK ENERGY IN STEP   7 IS        -56.1483729611166638 [AU]
 
 Step comparison  Energy Drift [au]  DIIS error drift  Gradient drift
        6            3.3301E-08         1.3489E-05       2.4272E-04
 ======================================================================
 ITERATION STEP   8
 CPU time [min]:     0.754                   Wall time [min]:     0.028
 

 SCF control                  : diis
 Damping factor/level shift   : 0.000/0.000
 DIIS [start/end/frequency]   :   2 /200 /  1

 Constructing Fock-matrix...
 
 Pipek-Mezey localization...
 Step  Convergence
   1   0.045140253553
   2   0.044140861088
   3   0.000032118846
   4   0.000000111116
   5   0.000000000270
   6   0.000000000001
 CPU time [min]:     0.781                   Wall time [min]:     0.029
 
 Constructing local fitting domains...
 Local fitting domains are unchanged.
 
 First step of Coulomb + first step of exchange...
 Exchange contribution is evaluated for MOs 1 to 5.
   1% done.
  13% done.
  28% done.
  39% done.
  69% done.
 100% done.
 Fitting and assembly step of exchange...
 CPU time [min]:     0.831                   Wall time [min]:     0.030
 
 Second step of Coulomb...
   1% done.
  13% done.
  28% done.
  39% done.
  69% done.
 100% done.
 CPU time [min]:     0.840                   Wall time [min]:     0.030
 
 Gradient norm:      1.0680E-05
 DIIS is running in this iteration step.
 RMS of [F,P]:                                         0.00000040752193
 RMS of difference density:                            0.00000052795964
 Gap [au]:  0.59697336
 ALPHA OCC:   5
 BETA  OCC:   5
 
 ***HARTREE-FOCK ENERGY IN STEP   8 IS        -56.1483729622628616 [AU]
 
 Step comparison  Energy Drift [au]  DIIS error drift  Gradient drift
        7            1.1462E-09         1.9130E-06       6.2181E-05
 ======================================================================
 ITERATION STEP   9
 CPU time [min]:     0.906                   Wall time [min]:     0.031
 

 SCF control                  : diis
 Damping factor/level shift   : 0.000/0.000
 DIIS [start/end/frequency]   :   2 /200 /  1

 Constructing Fock-matrix...
 
 Pipek-Mezey localization...
 Step  Convergence
   1   0.045333754935
   2   0.046381010127
   3   0.000083918810
   4   0.000000391650
   5   0.000000000873
   6   0.000000000002
   7   0.000000000000
 CPU time [min]:     0.932                   Wall time [min]:     0.031
 
 Constructing local fitting domains...
 Local fitting domains are unchanged.
 
 First step of Coulomb + first step of exchange...
 Exchange contribution is evaluated for MOs 1 to 5.
   1% done.
  13% done.
  28% done.
  39% done.
  69% done.
 100% done.
 Fitting and assembly step of exchange...
 CPU time [min]:     0.981                   Wall time [min]:     0.032
 
 Second step of Coulomb...
   1% done.
  13% done.
  28% done.
  39% done.
  69% done.
 100% done.
 CPU time [min]:     0.991                   Wall time [min]:     0.032
 
 Gradient norm:      1.2194E-06
 DIIS is running in this iteration step.
 RMS of [F,P]:                                         0.00000004993312
 RMS of difference density:                            0.00000011294067
 Gap [au]:  0.59697315
 ALPHA OCC:   5
 BETA  OCC:   5
 
 ***HARTREE-FOCK ENERGY IN STEP   9 IS        -56.1483729623050891 [AU]
 
 Step comparison  Energy Drift [au]  DIIS error drift  Gradient drift
        8            4.2228E-11         3.5759E-07       9.4607E-06
 ======================================================================
 ITERATION STEP  10
 CPU time [min]:     1.004                   Wall time [min]:     0.032
 

 SCF control                  : diis
 Damping factor/level shift   : 0.000/0.000
 DIIS [start/end/frequency]   :   2 /200 /  1

 Constructing Fock-matrix...
 
 Pipek-Mezey localization...
 Step  Convergence
   1   0.040083396850
   2   0.040171612509
   3   0.000000818951
   4   0.000000000035
   5   0.000000000000
 CPU time [min]:     1.030                   Wall time [min]:     0.033
 
 Constructing local fitting domains...
 Local fitting domains are unchanged.
 
 First step of Coulomb + first step of exchange...
 Exchange contribution is evaluated for MOs 1 to 5.
   1% done.
  13% done.
  28% done.
  39% done.
  69% done.
 100% done.
 Fitting and assembly step of exchange...
 CPU time [min]:     1.080                   Wall time [min]:     0.034
 
 Second step of Coulomb...
   1% done.
  13% done.
  28% done.
  39% done.
  69% done.
 100% done.
 CPU time [min]:     1.090                   Wall time [min]:     0.034
 
 Gradient norm:      4.1087E-07
 DIIS is running in this iteration step.
 RMS of [F,P]:                                         0.00000001237371
 RMS of difference density:                            0.00000004068238
 Gap [au]:  0.59697313
 ALPHA OCC:   5
 BETA  OCC:   5
 
 ***HARTREE-FOCK ENERGY IN STEP  10 IS        -56.1483729623061052 [AU]
 
 Step comparison  Energy Drift [au]  DIIS error drift  Gradient drift
        9            1.0161E-12         3.7559E-08       8.0852E-07
 ======================================================================
 ITERATION STEP  11
 CPU time [min]:     1.104                   Wall time [min]:     0.034
 

 SCF control                  : diis
 Damping factor/level shift   : 0.000/0.000
 DIIS [start/end/frequency]   :   2 /200 /  1

 Constructing Fock-matrix...
 
 Pipek-Mezey localization...
 Step  Convergence
   1   0.045140204094
   2   0.044193256993
   3   0.000005688556
   4   0.000000002591
   5   0.000000000002
   6   0.000000000000
 CPU time [min]:     1.130                   Wall time [min]:     0.034
 
 Constructing local fitting domains...
 Local fitting domains are unchanged.
 
 First step of Coulomb + first step of exchange...
 Exchange contribution is evaluated for MOs 1 to 5.
   1% done.
  13% done.
  28% done.
  39% done.
  69% done.
 100% done.
 Fitting and assembly step of exchange...
 CPU time [min]:     1.180                   Wall time [min]:     0.035
 
 Second step of Coulomb...
   1% done.
  13% done.
  28% done.
  39% done.
  69% done.
 100% done.
 CPU time [min]:     1.190                   Wall time [min]:     0.035
 
 Gradient norm:      5.2332E-08
 DIIS is running in this iteration step.
 RMS of [F,P]:                                         0.00000000216509
 RMS of difference density:                            0.00000000639834
 Gap [au]:  0.59697314
 ALPHA OCC:   5
 BETA  OCC:   5
 
 ***HARTREE-FOCK ENERGY IN STEP  11 IS        -56.1483729623062118 [AU]
 
 Step comparison  Energy Drift [au]  DIIS error drift  Gradient drift
       10            1.0658E-13         1.0209E-08       3.5854E-07
 ======================================================================
 ITERATION STEP  12
 CPU time [min]:     1.205                   Wall time [min]:     0.036
 

 SCF control                  : diis
 Damping factor/level shift   : 0.000/0.000
 DIIS [start/end/frequency]   :   2 /200 /  1

 Constructing Fock-matrix...
 
 Pipek-Mezey localization...
 Step  Convergence
   1   0.055469155649
   2   0.053171870096
   3   0.000067024964
   4   0.000000104422
   5   0.000000000132
   6   0.000000000000
 CPU time [min]:     1.231                   Wall time [min]:     0.036
 
 Constructing local fitting domains...
 Local fitting domains are unchanged.
 
 First step of Coulomb + first step of exchange...
 Exchange contribution is evaluated for MOs 1 to 5.
   1% done.
  13% done.
  28% done.
  39% done.
  69% done.
 100% done.
 Fitting and assembly step of exchange...
 CPU time [min]:     1.280                   Wall time [min]:     0.037
 
 Second step of Coulomb...
   1% done.
  13% done.
  28% done.
  39% done.
  69% done.
 100% done.
 CPU time [min]:     1.290                   Wall time [min]:     0.037
 
 Gradient norm:      3.7025E-09
 DIIS is running in this iteration step.
 RMS of [F,P]:                                         0.00000000016407
 RMS of difference density:                            0.00000000017485
 Gap [au]:  0.59697314
 ALPHA OCC:   5
 BETA  OCC:   5
 
 ***HARTREE-FOCK ENERGY IN STEP  12 IS        -56.1483729623062473 [AU]
 
 Step comparison  Energy Drift [au]  DIIS error drift  Gradient drift
       11            3.5527E-14         2.0010E-09       4.8630E-08
 
 The SCF iteration has converged.
 An extra iteration will be performed to calculate accurate SCF energy.
 
 ======================================================================
 ITERATION STEP  13
 CPU time [min]:     1.363                   Wall time [min]:     0.038
 

 SCF control                  : diis
 Damping factor/level shift   : 0.000/0.000
 DIIS [start/end/frequency]   :   2 /200 /  1

 Constructing Fock-matrix...
 
 Pipek-Mezey localization...
 Step  Convergence
   1   0.045140057376
   2   0.046296523960
   3   0.000084460098
   4   0.000000395394
   5   0.000000000880
   6   0.000000000002
   7   0.000000000000
 CPU time [min]:     1.389                   Wall time [min]:     0.038
 
 Constructing local fitting domains...
 Local fitting domains are unchanged.
 
 First step of Coulomb + first step of exchange...
 Exchange contribution is evaluated for MOs 1 to 5.
   1% done.
  13% done.
  28% done.
  39% done.
  69% done.
 100% done.
 Fitting and assembly step of exchange...
 CPU time [min]:     1.439                   Wall time [min]:     0.039
 
 Second step of Coulomb...
   1% done.
  13% done.
  28% done.
  39% done.
  69% done.
 100% done.
 CPU time [min]:     1.449                   Wall time [min]:     0.039
 
 Gradient norm:      4.7507E-10
 RMS of [F,P]:                                         0.00000000002599
 RMS of difference density:                            0.00000000003052
 Gap [au]:  0.59697314
 ALPHA OCC:   5
 BETA  OCC:   5
 
 ***HARTREE-FOCK ENERGY IN STEP  13 IS        -56.1483729623062047 [AU]
 
 Step comparison  Energy Drift [au]  DIIS error drift  Gradient drift
       12           -4.2633E-14         1.3808E-10       3.2275E-09
 Warning! The energy goes uphill (with respect to previous step).
 ======================================================================
 
 SUCCESS...
 THE SCF ITERATION HAS CONVERGED!
 
                   A   
 FINAL ALPHA OCC:   5
 FINAL BETA  OCC:   5
 
 ***FINAL HARTREE-FOCK ENERGY:        -56.1483729623062047 [AU]
 
 Orbital energies [au]:
      Irrep         Alpha          Beta
    1   A        -15.537640     -15.537640
    2   A         -1.116004      -1.116004
    3   A         -0.617254      -0.617254
    4   A         -0.617214      -0.617214
    5   A         -0.420656      -0.420656
 
    6   A          0.176317       0.176317
    7   A          0.269668       0.269668
    8   A          0.269672       0.269672
    9   A          0.734864       0.734864
   10   A          0.734918       0.734918
   11   A          0.892375       0.892375
   12   A          0.989030       0.989030
   13   A          1.095109       1.095109
   14   A          1.095114       1.095114
   15   A          1.146208       1.146208
   16   A          1.455232       1.455232
   17   A          1.455271       1.455271
   18   A          1.877731       1.877731
   19   A          1.961818       1.961818
   20   A          2.082327       2.082327
   21   A          2.082336       2.082336
   22   A          2.428591       2.428591
   23   A          2.428714       2.428714
   24   A          2.772227       2.772227
   25   A          3.164917       3.164917
   26   A          3.164921       3.164921
   27   A          3.261477       3.261477
   28   A          3.704700       3.704700
   29   A          3.704711       3.704711
 
 RETURNING FROM SCF ALGORITHM
 ======================================================================

 ************************ 2026-02-26 16:01:17 *************************
 Executing integ...

 Allocation of 46.0 Gbytes of memory...
 
 
 Number of atoms:                  4
 Charge:                           0
 Number of electrons:             10
 Number of core electrons:         2
 Spin multiplicity:                1
 
                 Cartesian coordinates [bohr]      Atomic mass [AMU]  Z
   1  H     1.51798146    0.50919579   -0.98892239     1.007825       1
   2  H     0.50934014   -0.98892239    1.51787491     1.007825       1
   3  H    -0.98879693    1.51789380    0.50921469     1.007825       1
   4  N    -0.07473641   -0.07471068   -0.07471068    14.003074       7
 
 This molecule is an asymmetric top.
 
 Rotational constants [cm-1]: 
      9.818547075435      9.818369386061      6.257416881345
 
 Point group: C1  
 Computational point group: C1  
 
 Cartesian coordinates in standard orientation [bohr]
   1  H     0.36472399    1.74620825    0.59936224
   2  H     1.32998857   -1.18875552    0.59942989
   3  H    -1.69442622   -0.55720763    0.59953850
   4  N    -0.00002061   -0.00001764   -0.12942891
 
 Nuclear repulsion energy [au]:         11.868945825089
 
 
 Basis set information:
 
 Maximum angular momentum: h
 Maximum number of contracted Gaussians:   11
 Maximum number of primitive Gaussians:    14
 Spherical harmonic GTOs are used.
 
 
 Conventional basis set:
 
   1  H  aug-cc-pvqz [ 7s 4p 3d 2f | 5s 4p 3d 2f ]
   2  H  aug-cc-pvqz [ 7s 4p 3d 2f | 5s 4p 3d 2f ]
   3  H  aug-cc-pvqz [ 7s 4p 3d 2f | 5s 4p 3d 2f ]
   4  N  aug-cc-pvqz [ 13s 7p 4d 3f 2g | 6s 5p 4d 3f 2g ]
 
 Basis functions:
            1             2             3             4             5             6             7             8             9            10
    0    1H1s          1H2s          1H3s          1H4s          1H5s          1H1pz         1H1py         1H1px         1H2pz         1H2py     
    1    1H2px         1H3pz         1H3py         1H3px         1H4pz         1H4py         1H4px         1H1d-2        1H1d-1        1H1d0     
    2    1H1d+1        1H1d+2        1H2d-2        1H2d-1        1H2d0         1H2d+1        1H2d+2        1H3d-2        1H3d-1        1H3d0     
    3    1H3d+1        1H3d+2        1H1f-3        1H1f-2        1H1f-1        1H1f0         1H1f+1        1H1f+2        1H1f+3        1H2f-3    
    4    1H2f-2        1H2f-1        1H2f0         1H2f+1        1H2f+2        1H2f+3        2H1s          2H2s          2H3s          2H4s      
    5    2H5s          2H1pz         2H1py         2H1px         2H2pz         2H2py         2H2px         2H3pz         2H3py         2H3px     
    6    2H4pz         2H4py         2H4px         2H1d-2        2H1d-1        2H1d0         2H1d+1        2H1d+2        2H2d-2        2H2d-1    
    7    2H2d0         2H2d+1        2H2d+2        2H3d-2        2H3d-1        2H3d0         2H3d+1        2H3d+2        2H1f-3        2H1f-2    
    8    2H1f-1        2H1f0         2H1f+1        2H1f+2        2H1f+3        2H2f-3        2H2f-2        2H2f-1        2H2f0         2H2f+1    
    9    2H2f+2        2H2f+3        3H1s          3H2s          3H3s          3H4s          3H5s          3H1pz         3H1py         3H1px     
   10    3H2pz         3H2py         3H2px         3H3pz         3H3py         3H3px         3H4pz         3H4py         3H4px         3H1d-2    
   11    3H1d-1        3H1d0         3H1d+1        3H1d+2        3H2d-2        3H2d-1        3H2d0         3H2d+1        3H2d+2        3H3d-2    
   12    3H3d-1        3H3d0         3H3d+1        3H3d+2        3H1f-3        3H1f-2        3H1f-1        3H1f0         3H1f+1        3H1f+2    
   13    3H1f+3        3H2f-3        3H2f-2        3H2f-1        3H2f0         3H2f+1        3H2f+2        3H2f+3        4N1s          4N2s      
   14    4N3s          4N4s          4N5s          4N6s          4N1pz         4N1py         4N1px         4N2pz         4N2py         4N2px     
   15    4N3pz         4N3py         4N3px         4N4pz         4N4py         4N4px         4N5pz         4N5py         4N5px         4N1d-2    
   16    4N1d-1        4N1d0         4N1d+1        4N1d+2        4N2d-2        4N2d-1        4N2d0         4N2d+1        4N2d+2        4N3d-2    
   17    4N3d-1        4N3d0         4N3d+1        4N3d+2        4N4d-2        4N4d-1        4N4d0         4N4d+1        4N4d+2        4N1f-3    
   18    4N1f-2        4N1f-1        4N1f0         4N1f+1        4N1f+2        4N1f+3        4N2f-3        4N2f-2        4N2f-1        4N2f0     
   19    4N2f+1        4N2f+2        4N2f+3        4N3f-3        4N3f-2        4N3f-1        4N3f0         4N3f+1        4N3f+2        4N3f+3    
   20    4N1g-4        4N1g-3        4N1g-2        4N1g-1        4N1g0         4N1g+1        4N1g+2        4N1g+3        4N1g+4        4N2g-4    
   21    4N2g-3        4N2g-2        4N2g-1        4N2g0         4N2g+1        4N2g+2        4N2g+3        4N2g+4    
 
 Maximum number of basis functions per shell:   21
 Total number of basis functions:    218
 
 
 Fitting basis set for the SCF calculation:
 
   1  H  aug-cc-pvqz-ri-jk [ 5s 4p 4d 3f 2g | 5s 4p 4d 3f 2g ]
   2  H  aug-cc-pvqz-ri-jk [ 5s 4p 4d 3f 2g | 5s 4p 4d 3f 2g ]
   3  H  aug-cc-pvqz-ri-jk [ 5s 4p 4d 3f 2g | 5s 4p 4d 3f 2g ]
   4  N  aug-cc-pvqz-ri-jk [ 11s 8p 6d 4f 3g 2h | 11s 8p 6d 4f 3g 2h ]
 
 Basis functions:
            1             2             3             4             5             6             7             8             9            10
    0    1H1s          1H2s          1H3s          1H4s          1H5s          1H1pz         1H1py         1H1px         1H2pz         1H2py     
    1    1H2px         1H3pz         1H3py         1H3px         1H4pz         1H4py         1H4px         1H1d-2        1H1d-1        1H1d0     
    2    1H1d+1        1H1d+2        1H2d-2        1H2d-1        1H2d0         1H2d+1        1H2d+2        1H3d-2        1H3d-1        1H3d0     
    3    1H3d+1        1H3d+2        1H4d-2        1H4d-1        1H4d0         1H4d+1        1H4d+2        1H1f-3        1H1f-2        1H1f-1    
    4    1H1f0         1H1f+1        1H1f+2        1H1f+3        1H2f-3        1H2f-2        1H2f-1        1H2f0         1H2f+1        1H2f+2    
    5    1H2f+3        1H3f-3        1H3f-2        1H3f-1        1H3f0         1H3f+1        1H3f+2        1H3f+3        1H1g-4        1H1g-3    
    6    1H1g-2        1H1g-1        1H1g0         1H1g+1        1H1g+2        1H1g+3        1H1g+4        1H2g-4        1H2g-3        1H2g-2    
    7    1H2g-1        1H2g0         1H2g+1        1H2g+2        1H2g+3        1H2g+4        2H1s          2H2s          2H3s          2H4s      
    8    2H5s          2H1pz         2H1py         2H1px         2H2pz         2H2py         2H2px         2H3pz         2H3py         2H3px     
    9    2H4pz         2H4py         2H4px         2H1d-2        2H1d-1        2H1d0         2H1d+1        2H1d+2        2H2d-2        2H2d-1    
   10    2H2d0         2H2d+1        2H2d+2        2H3d-2        2H3d-1        2H3d0         2H3d+1        2H3d+2        2H4d-2        2H4d-1    
   11    2H4d0         2H4d+1        2H4d+2        2H1f-3        2H1f-2        2H1f-1        2H1f0         2H1f+1        2H1f+2        2H1f+3    
   12    2H2f-3        2H2f-2        2H2f-1        2H2f0         2H2f+1        2H2f+2        2H2f+3        2H3f-3        2H3f-2        2H3f-1    
   13    2H3f0         2H3f+1        2H3f+2        2H3f+3        2H1g-4        2H1g-3        2H1g-2        2H1g-1        2H1g0         2H1g+1    
   14    2H1g+2        2H1g+3        2H1g+4        2H2g-4        2H2g-3        2H2g-2        2H2g-1        2H2g0         2H2g+1        2H2g+2    
   15    2H2g+3        2H2g+4        3H1s          3H2s          3H3s          3H4s          3H5s          3H1pz         3H1py         3H1px     
   16    3H2pz         3H2py         3H2px         3H3pz         3H3py         3H3px         3H4pz         3H4py         3H4px         3H1d-2    
   17    3H1d-1        3H1d0         3H1d+1        3H1d+2        3H2d-2        3H2d-1        3H2d0         3H2d+1        3H2d+2        3H3d-2    
   18    3H3d-1        3H3d0         3H3d+1        3H3d+2        3H4d-2        3H4d-1        3H4d0         3H4d+1        3H4d+2        3H1f-3    
   19    3H1f-2        3H1f-1        3H1f0         3H1f+1        3H1f+2        3H1f+3        3H2f-3        3H2f-2        3H2f-1        3H2f0     
   20    3H2f+1        3H2f+2        3H2f+3        3H3f-3        3H3f-2        3H3f-1        3H3f0         3H3f+1        3H3f+2        3H3f+3    
   21    3H1g-4        3H1g-3        3H1g-2        3H1g-1        3H1g0         3H1g+1        3H1g+2        3H1g+3        3H1g+4        3H2g-4    
   22    3H2g-3        3H2g-2        3H2g-1        3H2g0         3H2g+1        3H2g+2        3H2g+3        3H2g+4        4N1s          4N2s      
   23    4N3s          4N4s          4N5s          4N6s          4N7s          4N8s          4N9s          4N10s         4N11s         4N1pz     
   24    4N1py         4N1px         4N2pz         4N2py         4N2px         4N3pz         4N3py         4N3px         4N4pz         4N4py     
   25    4N4px         4N5pz         4N5py         4N5px         4N6pz         4N6py         4N6px         4N7pz         4N7py         4N7px     
   26    4N8pz         4N8py         4N8px         4N1d-2        4N1d-1        4N1d0         4N1d+1        4N1d+2        4N2d-2        4N2d-1    
   27    4N2d0         4N2d+1        4N2d+2        4N3d-2        4N3d-1        4N3d0         4N3d+1        4N3d+2        4N4d-2        4N4d-1    
   28    4N4d0         4N4d+1        4N4d+2        4N5d-2        4N5d-1        4N5d0         4N5d+1        4N5d+2        4N6d-2        4N6d-1    
   29    4N6d0         4N6d+1        4N6d+2        4N1f-3        4N1f-2        4N1f-1        4N1f0         4N1f+1        4N1f+2        4N1f+3    
   30    4N2f-3        4N2f-2        4N2f-1        4N2f0         4N2f+1        4N2f+2        4N2f+3        4N3f-3        4N3f-2        4N3f-1    
   31    4N3f0         4N3f+1        4N3f+2        4N3f+3        4N4f-3        4N4f-2        4N4f-1        4N4f0         4N4f+1        4N4f+2    
   32    4N4f+3        4N1g-4        4N1g-3        4N1g-2        4N1g-1        4N1g0         4N1g+1        4N1g+2        4N1g+3        4N1g+4    
   33    4N2g-4        4N2g-3        4N2g-2        4N2g-1        4N2g0         4N2g+1        4N2g+2        4N2g+3        4N2g+4        4N3g-4    
   34    4N3g-3        4N3g-2        4N3g-1        4N3g0         4N3g+1        4N3g+2        4N3g+3        4N3g+4        4N1h-5        4N1h-4    
   35    4N1h-3        4N1h-2        4N1h-1        4N1h0         4N1h+1        4N1h+2        4N1h+3        4N1h+4        4N1h+5        4N2h-5    
   36    4N2h-4        4N2h-3        4N2h-2        4N2h-1        4N2h0         4N2h+1        4N2h+2        4N2h+3        4N2h+4        4N2h+5    
 
 Maximum number of basis functions per shell:   30
 Total number of basis functions:    370
 
 
 Fitting basis set for the correlation calculation:
 
   1  H  aug-cc-pvqz-ri [ 6s 5p 4d 3f 2g | 6s 5p 4d 3f 2g ]
   2  H  aug-cc-pvqz-ri [ 6s 5p 4d 3f 2g | 6s 5p 4d 3f 2g ]
   3  H  aug-cc-pvqz-ri [ 6s 5p 4d 3f 2g | 6s 5p 4d 3f 2g ]
   4  N  aug-cc-pvqz-ri [ 9s 8p 7d 6f 4g 2h | 9s 8p 7d 6f 4g 2h ]
 
 Basis functions:
            1             2             3             4             5             6             7             8             9            10
    0    1H1s          1H2s          1H3s          1H4s          1H5s          1H6s          1H1pz         1H1py         1H1px         1H2pz     
    1    1H2py         1H2px         1H3pz         1H3py         1H3px         1H4pz         1H4py         1H4px         1H5pz         1H5py     
    2    1H5px         1H1d-2        1H1d-1        1H1d0         1H1d+1        1H1d+2        1H2d-2        1H2d-1        1H2d0         1H2d+1    
    3    1H2d+2        1H3d-2        1H3d-1        1H3d0         1H3d+1        1H3d+2        1H4d-2        1H4d-1        1H4d0         1H4d+1    
    4    1H4d+2        1H1f-3        1H1f-2        1H1f-1        1H1f0         1H1f+1        1H1f+2        1H1f+3        1H2f-3        1H2f-2    
    5    1H2f-1        1H2f0         1H2f+1        1H2f+2        1H2f+3        1H3f-3        1H3f-2        1H3f-1        1H3f0         1H3f+1    
    6    1H3f+2        1H3f+3        1H1g-4        1H1g-3        1H1g-2        1H1g-1        1H1g0         1H1g+1        1H1g+2        1H1g+3    
    7    1H1g+4        1H2g-4        1H2g-3        1H2g-2        1H2g-1        1H2g0         1H2g+1        1H2g+2        1H2g+3        1H2g+4    
    8    2H1s          2H2s          2H3s          2H4s          2H5s          2H6s          2H1pz         2H1py         2H1px         2H2pz     
    9    2H2py         2H2px         2H3pz         2H3py         2H3px         2H4pz         2H4py         2H4px         2H5pz         2H5py     
   10    2H5px         2H1d-2        2H1d-1        2H1d0         2H1d+1        2H1d+2        2H2d-2        2H2d-1        2H2d0         2H2d+1    
   11    2H2d+2        2H3d-2        2H3d-1        2H3d0         2H3d+1        2H3d+2        2H4d-2        2H4d-1        2H4d0         2H4d+1    
   12    2H4d+2        2H1f-3        2H1f-2        2H1f-1        2H1f0         2H1f+1        2H1f+2        2H1f+3        2H2f-3        2H2f-2    
   13    2H2f-1        2H2f0         2H2f+1        2H2f+2        2H2f+3        2H3f-3        2H3f-2        2H3f-1        2H3f0         2H3f+1    
   14    2H3f+2        2H3f+3        2H1g-4        2H1g-3        2H1g-2        2H1g-1        2H1g0         2H1g+1        2H1g+2        2H1g+3    
   15    2H1g+4        2H2g-4        2H2g-3        2H2g-2        2H2g-1        2H2g0         2H2g+1        2H2g+2        2H2g+3        2H2g+4    
   16    3H1s          3H2s          3H3s          3H4s          3H5s          3H6s          3H1pz         3H1py         3H1px         3H2pz     
   17    3H2py         3H2px         3H3pz         3H3py         3H3px         3H4pz         3H4py         3H4px         3H5pz         3H5py     
   18    3H5px         3H1d-2        3H1d-1        3H1d0         3H1d+1        3H1d+2        3H2d-2        3H2d-1        3H2d0         3H2d+1    
   19    3H2d+2        3H3d-2        3H3d-1        3H3d0         3H3d+1        3H3d+2        3H4d-2        3H4d-1        3H4d0         3H4d+1    
   20    3H4d+2        3H1f-3        3H1f-2        3H1f-1        3H1f0         3H1f+1        3H1f+2        3H1f+3        3H2f-3        3H2f-2    
   21    3H2f-1        3H2f0         3H2f+1        3H2f+2        3H2f+3        3H3f-3        3H3f-2        3H3f-1        3H3f0         3H3f+1    
   22    3H3f+2        3H3f+3        3H1g-4        3H1g-3        3H1g-2        3H1g-1        3H1g0         3H1g+1        3H1g+2        3H1g+3    
   23    3H1g+4        3H2g-4        3H2g-3        3H2g-2        3H2g-1        3H2g0         3H2g+1        3H2g+2        3H2g+3        3H2g+4    
   24    4N1s          4N2s          4N3s          4N4s          4N5s          4N6s          4N7s          4N8s          4N9s          4N1pz     
   25    4N1py         4N1px         4N2pz         4N2py         4N2px         4N3pz         4N3py         4N3px         4N4pz         4N4py     
   26    4N4px         4N5pz         4N5py         4N5px         4N6pz         4N6py         4N6px         4N7pz         4N7py         4N7px     
   27    4N8pz         4N8py         4N8px         4N1d-2        4N1d-1        4N1d0         4N1d+1        4N1d+2        4N2d-2        4N2d-1    
   28    4N2d0         4N2d+1        4N2d+2        4N3d-2        4N3d-1        4N3d0         4N3d+1        4N3d+2        4N4d-2        4N4d-1    
   29    4N4d0         4N4d+1        4N4d+2        4N5d-2        4N5d-1        4N5d0         4N5d+1        4N5d+2        4N6d-2        4N6d-1    
   30    4N6d0         4N6d+1        4N6d+2        4N7d-2        4N7d-1        4N7d0         4N7d+1        4N7d+2        4N1f-3        4N1f-2    
   31    4N1f-1        4N1f0         4N1f+1        4N1f+2        4N1f+3        4N2f-3        4N2f-2        4N2f-1        4N2f0         4N2f+1    
   32    4N2f+2        4N2f+3        4N3f-3        4N3f-2        4N3f-1        4N3f0         4N3f+1        4N3f+2        4N3f+3        4N4f-3    
   33    4N4f-2        4N4f-1        4N4f0         4N4f+1        4N4f+2        4N4f+3        4N5f-3        4N5f-2        4N5f-1        4N5f0     
   34    4N5f+1        4N5f+2        4N5f+3        4N6f-3        4N6f-2        4N6f-1        4N6f0         4N6f+1        4N6f+2        4N6f+3    
   35    4N1g-4        4N1g-3        4N1g-2        4N1g-1        4N1g0         4N1g+1        4N1g+2        4N1g+3        4N1g+4        4N2g-4    
   36    4N2g-3        4N2g-2        4N2g-1        4N2g0         4N2g+1        4N2g+2        4N2g+3        4N2g+4        4N3g-4        4N3g-3    
   37    4N3g-2        4N3g-1        4N3g0         4N3g+1        4N3g+2        4N3g+3        4N3g+4        4N4g-4        4N4g-3        4N4g-2    
   38    4N4g-1        4N4g0         4N4g+1        4N4g+2        4N4g+3        4N4g+4        4N1h-5        4N1h-4        4N1h-3        4N1h-2    
   39    4N1h-1        4N1h0         4N1h+1        4N1h+2        4N1h+3        4N1h+4        4N1h+5        4N2h-5        4N2h-4        4N2h-3    
   40    4N2h-2        4N2h-1        4N2h0         4N2h+1        4N2h+2        4N2h+3        4N2h+4        4N2h+5    
 
 Maximum number of basis functions per shell:   42
 Total number of basis functions:    408
 
 
 Old basis set for SCF restart
 
   1  H  def2-svp [ 4s 1p | 2s 1p ]
   2  H  def2-svp [ 4s 1p | 2s 1p ]
   3  H  def2-svp [ 4s 1p | 2s 1p ]
   4  N  def2-svp [ 7s 4p 1d | 3s 2p 1d ]
 
 Basis functions:
            1             2             3             4             5             6             7             8             9            10
    0    1H1s          1H2s          1H1pz         1H1py         1H1px         2H1s          2H2s          2H1pz         2H1py         2H1px     
    1    3H1s          3H2s          3H1pz         3H1py         3H1px         4N1s          4N2s          4N3s          4N1pz         4N1py     
    2    4N1px         4N2pz         4N2py         4N2px         4N1d-2        4N1d-1        4N1d0         4N1d+1        4N1d+2    
 
 Maximum number of basis functions per shell:   42
 Total number of basis functions:     29
 
 
 Character table for point group C1:
 
          E  
    A     1
 
 Number of basis functions per irrep:
    A     218
 
 
 Calculation of overlap integrals...
 CPU time [min]:     0.130                   Wall time [min]:     0.004
 
 Calculation of the square root of the overlap matrix...
 Minimum eigenvalue of the overlap matrix: 0.476052E-04
 CPU time [min]:     0.155                   Wall time [min]:     0.005
 
 Calculation of kinetic energy integrals...
 CPU time [min]:     0.156                   Wall time [min]:     0.005
 Calculation of dipole moment integrals...
 CPU time [min]:     0.158                   Wall time [min]:     0.005
 Calculation of nuclear attraction integrals...
 CPU time [min]:     0.160                   Wall time [min]:     0.005
 Calculation of overlap integrals...
 CPU time [min]:     0.162                   Wall time [min]:     0.005
 
 Calculation of prescreening integrals...
 CPU time [min]:     0.399                   Wall time [min]:     0.009
 
 Calculation of two-center Coulomb integrals...
   1% done.
  13% done.
  26% done.
  38% done.
  51% done.
  63% done.
  75% done.
  88% done.
 100% done.
 CPU time [min]:     0.412                   Wall time [min]:     0.009
 
 Cholesky decomposition of the two-center matrix...
 Reciprocal of the condition number:  0.118229E-04
 CPU time [min]:     0.419                   Wall time [min]:     0.009
 

 ************************ 2026-02-26 16:01:18 *************************
 Executing scf...

 @scfsetup: integrals calculated directly
            mrcc/integ direct run
 @scfsetup: calculating on full matrices
            not using symmetry adapted basis
 @scfsetup: diis switched on
 @scfsetup: number of steps to extrapolate from  10
 @scfsetup: tolerance in energy deviation    0.100000E-07
            tolerance in density deviation    0.100000E-08
 @scfsetup: maximum number of iterations: 200
 @scfsetup: restricted closed shell hf calc
 @scfsetup: restarting scf from SCFDENSITIES file
 @scfsetup: occupation set:
            from initial orbitals
 @scfsetup: Parameter-set for SCF acceleration: normal
 @scfsetup: diis runs from iteration:   2
 @scfsetup: diis runs to iteration: 200
 @scfsetup: diis runs in every iteration
 @scfsetup: diiswatch is disabled                   
 @scfsetup: diis dtol criteria to switch on:      0.0000E+00
           (or the iteration number below is reached)
 @scfsetup: static damping scheme
            iteration step criteria to turn damping off: 3
 @scfsetup: dynamic level shifting
            tolarance in HOMO-LUMO gap:  0.200
            tolarance in density deviation:     0.0000E+00
            iteration step criteria to turn level shifting off: 8
 Allocation of 46.0 Gbytes of memory...
 ======================================================================
 ITERATION STEP   1
 CPU time [min]:     0.038                   Wall time [min]:     0.013
 

 SCF control                  : initial
 Damping factor/level shift   : 0.000/0.200
 DIIS [start/end/frequency]   :   2 /200 /  1

 Constructing Fock-matrix...
 Inverse square root: The matrix is not positive definite!
 
 Pipek-Mezey localization...
 Step  Convergence
   1   0.917812169097
   2   0.039466990980
   3   0.000306743185
   4   0.000005876030
   5   0.000000161632
   6   0.000000005201
 CPU time [min]:     0.066                   Wall time [min]:     0.013
 
 Constructing local fitting domains...
 Maximum number of atoms in fitting domains:    4
 Average number of atoms in fitting domains:    4.0
 
 First step of Coulomb + first step of exchange...
 Exchange contribution is evaluated for MOs 1 to 5.
   1% done.
  13% done.
  25% done.
  40% done.
  53% done.
  67% done.
  84% done.
 100% done.
 Fitting and assembly step of exchange...
 CPU time [min]:     0.199                   Wall time [min]:     0.015
 
 Second step of Coulomb...
   1% done.
  13% done.
  25% done.
  40% done.
  53% done.
  67% done.
  84% done.
 100% done.
 CPU time [min]:     0.244                   Wall time [min]:     0.016
 
 Gradient norm:      1.1119E+00
 RMS of [F,P]:                                         0.01001227658468
 RMS of difference density:                            0.02080906726867
 Gap [au]:  0.45382000
 ALPHA OCC:   5
 BETA  OCC:   5
 
 ***HARTREE-FOCK ENERGY IN STEP   1 IS        -56.1756371010528923 [AU]
 ======================================================================
 ITERATION STEP   2
 CPU time [min]:     0.274                   Wall time [min]:     0.017
 

 SCF control                  : diis
 Damping factor/level shift   : 0.000/0.000
 DIIS [start/end/frequency]   :   2 /200 /  1

 Constructing Fock-matrix...
 
 Pipek-Mezey localization...
 Step  Convergence
   1   0.019941365446
   2   0.020184515885
   3   0.000014971584
   4   0.000000153430
   5   0.000000001219
 CPU time [min]:     0.296                   Wall time [min]:     0.017
 
 Constructing local fitting domains...
 Maximum number of atoms in fitting domains:    4
 Average number of atoms in fitting domains:    4.0
 
 First step of Coulomb + first step of exchange...
 Exchange contribution is evaluated for MOs 1 to 5.
   1% done.
  13% done.
  25% done.
  40% done.
  53% done.
  67% done.
  84% done.
 100% done.
 Fitting and assembly step of exchange...
 CPU time [min]:     0.417                   Wall time [min]:     0.019
 
 Second step of Coulomb...
   1% done.
  13% done.
  25% done.
  40% done.
  53% done.
  67% done.
  84% done.
 100% done.
 CPU time [min]:     0.460                   Wall time [min]:     0.020
 
 Gradient norm:      5.2940E-02
 DIIS is running in this iteration step.
 RMS of [F,P]:                                         0.00035094089734
 RMS of difference density:                            0.00128919176263
 Gap [au]:  0.45622598
 ALPHA OCC:   5
 BETA  OCC:   5
 
 ***HARTREE-FOCK ENERGY IN STEP   2 IS        -56.2222341881825400 [AU]
 
 Step comparison  Energy Drift [au]  DIIS error drift  Gradient drift
        1            4.6597E-02         9.6613E-03       1.0589E+00
        2            5.6222E+01         1.0000E-09       1.0589E+00
 ======================================================================
 ITERATION STEP   3
 CPU time [min]:     0.484                   Wall time [min]:     0.020
 

 SCF control                  : diis
 Damping factor/level shift   : 0.000/0.000
 DIIS [start/end/frequency]   :   2 /200 /  1

 Constructing Fock-matrix...
 
 Pipek-Mezey localization...
 Step  Convergence
   1   0.031274226112
   2   0.030837125380
   3   0.000138844674
   4   0.000000197584
   5   0.000000004636
 CPU time [min]:     0.507                   Wall time [min]:     0.021
 
 Constructing local fitting domains...
 Local fitting domains are unchanged.
 
 First step of Coulomb + first step of exchange...
 Exchange contribution is evaluated for MOs 1 to 5.
   1% done.
  13% done.
  25% done.
  40% done.
  53% done.
  67% done.
  84% done.
 100% done.
 Fitting and assembly step of exchange...
 CPU time [min]:     0.625                   Wall time [min]:     0.022
 
 Second step of Coulomb...
   1% done.
  13% done.
  25% done.
  40% done.
  53% done.
  67% done.
  84% done.
 100% done.
 CPU time [min]:     0.668                   Wall time [min]:     0.023
 
 Gradient norm:      9.8037E-03
 DIIS is running in this iteration step.
 RMS of [F,P]:                                         0.00008770026841
 RMS of difference density:                            0.00027069248459
 Gap [au]:  0.45825734
 ALPHA OCC:   5
 BETA  OCC:   5
 
 ***HARTREE-FOCK ENERGY IN STEP   3 IS        -56.2231658315899878 [AU]
 
 Step comparison  Energy Drift [au]  DIIS error drift  Gradient drift
        2            9.3164E-04         2.6324E-04       4.3136E-02
 ======================================================================
 ITERATION STEP   4
 CPU time [min]:     0.692                   Wall time [min]:     0.024
 

 SCF control                  : diis
 Damping factor/level shift   : 0.000/0.000
 DIIS [start/end/frequency]   :   2 /200 /  1

 Constructing Fock-matrix...
 
 Pipek-Mezey localization...
 Step  Convergence
   1   0.019963992359
   2   0.020250043010
   3   0.000016675319
   4   0.000000090592
   5   0.000000001047
 CPU time [min]:     0.715                   Wall time [min]:     0.024
 
 Constructing local fitting domains...
 Local fitting domains are unchanged.
 
 First step of Coulomb + first step of exchange...
 Exchange contribution is evaluated for MOs 1 to 5.
   1% done.
  13% done.
  25% done.
  40% done.
  53% done.
  67% done.
  84% done.
 100% done.
 Fitting and assembly step of exchange...
 CPU time [min]:     0.833                   Wall time [min]:     0.026
 
 Second step of Coulomb...
   1% done.
  13% done.
  25% done.
  40% done.
  53% done.
  67% done.
  84% done.
 100% done.
 CPU time [min]:     0.876                   Wall time [min]:     0.027
 
 Gradient norm:      4.1788E-03
 DIIS is running in this iteration step.
 RMS of [F,P]:                                         0.00003319875904
 RMS of difference density:                            0.00006484501403
 Gap [au]:  0.45620675
 ALPHA OCC:   5
 BETA  OCC:   5
 
 ***HARTREE-FOCK ENERGY IN STEP   4 IS        -56.2232987955275263 [AU]
 
 Step comparison  Energy Drift [au]  DIIS error drift  Gradient drift
        3            1.3296E-04         5.4502E-05       5.6250E-03
 ======================================================================
 ITERATION STEP   5
 CPU time [min]:     0.900                   Wall time [min]:     0.027
 

 SCF control                  : diis
 Damping factor/level shift   : 0.000/0.000
 DIIS [start/end/frequency]   :   2 /200 /  1

 Constructing Fock-matrix...
 
 Pipek-Mezey localization...
 Step  Convergence
   1   0.041254372391
   2   0.036476222005
   3   0.000416634057
   4   0.000007368870
   5   0.000000187737
   6   0.000000006711
 CPU time [min]:     0.923                   Wall time [min]:     0.027
 
 Constructing local fitting domains...
 Local fitting domains are unchanged.
 
 First step of Coulomb + first step of exchange...
 Exchange contribution is evaluated for MOs 1 to 5.
   1% done.
  13% done.
  25% done.
  40% done.
  53% done.
  67% done.
  84% done.
 100% done.
 Fitting and assembly step of exchange...
 CPU time [min]:     1.040                   Wall time [min]:     0.029
 
 Second step of Coulomb...
   1% done.
  13% done.
  25% done.
  40% done.
  53% done.
  67% done.
  84% done.
 100% done.
 CPU time [min]:     1.083                   Wall time [min]:     0.030
 
 Gradient norm:      1.4025E-03
 DIIS is running in this iteration step.
 RMS of [F,P]:                                         0.00001624439034
 RMS of difference density:                            0.00003331206456
 Gap [au]:  0.45642260
 ALPHA OCC:   5
 BETA  OCC:   5
 
 ***HARTREE-FOCK ENERGY IN STEP   5 IS        -56.2233164077082535 [AU]
 
 Step comparison  Energy Drift [au]  DIIS error drift  Gradient drift
        4            1.7612E-05         1.6954E-05       2.7763E-03
 ======================================================================
 ITERATION STEP   6
 CPU time [min]:     1.107                   Wall time [min]:     0.030
 

 SCF control                  : diis
 Damping factor/level shift   : 0.000/0.000
 DIIS [start/end/frequency]   :   2 /200 /  1

 Constructing Fock-matrix...
 
 Pipek-Mezey localization...
 Step  Convergence
   1   0.040782804667
   2   0.038263728471
   3   0.000397915788
   4   0.000007239213
   5   0.000000204064
   6   0.000000006330
   7   0.000000000209
   8   0.000000000007
   9   0.000000000000
 CPU time [min]:     1.130                   Wall time [min]:     0.031
 
 Constructing local fitting domains...
 Local fitting domains are unchanged.
 
 First step of Coulomb + first step of exchange...
 Exchange contribution is evaluated for MOs 1 to 5.
   1% done.
  13% done.
  25% done.
  40% done.
  53% done.
  67% done.
  84% done.
 100% done.
 Fitting and assembly step of exchange...
 CPU time [min]:     1.248                   Wall time [min]:     0.033
 
 Second step of Coulomb...
   1% done.
  13% done.
  25% done.
  40% done.
  53% done.
  67% done.
  84% done.
 100% done.
 CPU time [min]:     1.291                   Wall time [min]:     0.033
 
 Gradient norm:      3.9889E-04
 DIIS is running in this iteration step.
 RMS of [F,P]:                                         0.00000253476274
 RMS of difference density:                            0.00000635177797
 Gap [au]:  0.45625023
 ALPHA OCC:   5
 BETA  OCC:   5
 
 ***HARTREE-FOCK ENERGY IN STEP   6 IS        -56.2233197432990153 [AU]
 
 Step comparison  Energy Drift [au]  DIIS error drift  Gradient drift
        5            3.3356E-06         1.3710E-05       1.0036E-03
 ======================================================================
 ITERATION STEP   7
 CPU time [min]:     1.314                   Wall time [min]:     0.034
 

 SCF control                  : diis
 Damping factor/level shift   : 0.000/0.000
 DIIS [start/end/frequency]   :   2 /200 /  1

 Constructing Fock-matrix...
 
 Pipek-Mezey localization...
 Step  Convergence
   1   0.041446096883
   2   0.038960699789
   3   0.000289937588
   4   0.000006896832
   5   0.000000155286
   6   0.000000005447
   7   0.000000000151
   8   0.000000000005
   9   0.000000000000
 CPU time [min]:     1.337                   Wall time [min]:     0.034
 
 Constructing local fitting domains...
 Local fitting domains are unchanged.
 
 First step of Coulomb + first step of exchange...
 Exchange contribution is evaluated for MOs 1 to 5.
   1% done.
  13% done.
  25% done.
  40% done.
  53% done.
  67% done.
  84% done.
 100% done.
 Fitting and assembly step of exchange...
 CPU time [min]:     1.455                   Wall time [min]:     0.036
 
 Second step of Coulomb...
   1% done.
  13% done.
  25% done.
  40% done.
  53% done.
  67% done.
  84% done.
 100% done.
 CPU time [min]:     1.497                   Wall time [min]:     0.037
 
 Gradient norm:      4.2803E-05
 DIIS is running in this iteration step.
 RMS of [F,P]:                                         0.00000034877944
 RMS of difference density:                            0.00000083772075
 Gap [au]:  0.45624562
 ALPHA OCC:   5
 BETA  OCC:   5
 
 ***HARTREE-FOCK ENERGY IN STEP   7 IS        -56.2233198187168313 [AU]
 
 Step comparison  Energy Drift [au]  DIIS error drift  Gradient drift
        6            7.5418E-08         2.1860E-06       3.5609E-04
 ======================================================================
 ITERATION STEP   8
 CPU time [min]:     1.520                   Wall time [min]:     0.037
 

 SCF control                  : diis
 Damping factor/level shift   : 0.000/0.000
 DIIS [start/end/frequency]   :   2 /200 /  1

 Constructing Fock-matrix...
 
 Pipek-Mezey localization...
 Step  Convergence
   1   0.040803119166
   2   0.038210516618
   3   0.000295239381
   4   0.000005467674
   5   0.000000147041
   6   0.000000005318
   7   0.000000000154
   8   0.000000000005
   9   0.000000000000
 CPU time [min]:     1.543                   Wall time [min]:     0.038
 
 Constructing local fitting domains...
 Local fitting domains are unchanged.
 
 First step of Coulomb + first step of exchange...
 Exchange contribution is evaluated for MOs 1 to 5.
   1% done.
  13% done.
  25% done.
  40% done.
  53% done.
  67% done.
  84% done.
 100% done.
 Fitting and assembly step of exchange...
 CPU time [min]:     1.660                   Wall time [min]:     0.039
 
 Second step of Coulomb...
   1% done.
  13% done.
  25% done.
  40% done.
  53% done.
  67% done.
  84% done.
 100% done.
 CPU time [min]:     1.703                   Wall time [min]:     0.040
 
 Gradient norm:      1.6274E-05
 DIIS is running in this iteration step.
 RMS of [F,P]:                                         0.00000012221055
 RMS of difference density:                            0.00000026861604
 Gap [au]:  0.45624563
 ALPHA OCC:   5
 BETA  OCC:   5
 
 ***HARTREE-FOCK ENERGY IN STEP   8 IS        -56.2233198212665073 [AU]
 
 Step comparison  Energy Drift [au]  DIIS error drift  Gradient drift
        7            2.5497E-09         2.2657E-07       2.6530E-05
 ======================================================================
 ITERATION STEP   9
 CPU time [min]:     1.728                   Wall time [min]:     0.041
 

 SCF control                  : diis
 Damping factor/level shift   : 0.000/0.000
 DIIS [start/end/frequency]   :   2 /200 /  1

 Constructing Fock-matrix...
 
 Pipek-Mezey localization...
 Step  Convergence
   1   0.041934127034
   2   0.038893988159
   3   0.000328657591
   4   0.000006084040
   5   0.000000170607
   6   0.000000005687
   7   0.000000000173
   8   0.000000000006
   9   0.000000000000
 CPU time [min]:     1.751                   Wall time [min]:     0.041
 
 Constructing local fitting domains...
 Local fitting domains are unchanged.
 
 First step of Coulomb + first step of exchange...
 Exchange contribution is evaluated for MOs 1 to 5.
   1% done.
  13% done.
  25% done.
  40% done.
  53% done.
  67% done.
  84% done.
 100% done.
 Fitting and assembly step of exchange...
 CPU time [min]:     1.869                   Wall time [min]:     0.043
 
 Second step of Coulomb...
   1% done.
  13% done.
  25% done.
  40% done.
  53% done.
  67% done.
  84% done.
 100% done.
 CPU time [min]:     1.912                   Wall time [min]:     0.044
 
 Gradient norm:      3.9219E-06
 DIIS is running in this iteration step.
 RMS of [F,P]:                                         0.00000002853616
 RMS of difference density:                            0.00000007679948
 Gap [au]:  0.45624547
 ALPHA OCC:   5
 BETA  OCC:   5
 
 ***HARTREE-FOCK ENERGY IN STEP   9 IS        -56.2233198215862018 [AU]
 
 Step comparison  Energy Drift [au]  DIIS error drift  Gradient drift
        8            3.1969E-10         9.3674E-08       1.2352E-05
 ======================================================================
 ITERATION STEP  10
 CPU time [min]:     1.935                   Wall time [min]:     0.044
 

 SCF control                  : diis
 Damping factor/level shift   : 0.000/0.000
 DIIS [start/end/frequency]   :   2 /200 /  1

 Constructing Fock-matrix...
 
 Pipek-Mezey localization...
 Step  Convergence
   1   0.041463726670
   2   0.038874332668
   3   0.000287483949
   4   0.000006827193
   5   0.000000152014
   6   0.000000005336
   7   0.000000000147
   8   0.000000000005
   9   0.000000000000
 CPU time [min]:     1.958                   Wall time [min]:     0.044
 
 Constructing local fitting domains...
 Local fitting domains are unchanged.
 
 First step of Coulomb + first step of exchange...
 Exchange contribution is evaluated for MOs 1 to 5.
   1% done.
  13% done.
  25% done.
  40% done.
  53% done.
  67% done.
  84% done.
 100% done.
 Fitting and assembly step of exchange...
 CPU time [min]:     2.076                   Wall time [min]:     0.046
 
 Second step of Coulomb...
   1% done.
  13% done.
  25% done.
  40% done.
  53% done.
  67% done.
  84% done.
 100% done.
 CPU time [min]:     2.119                   Wall time [min]:     0.047
 
 Gradient norm:      2.5484E-07
 DIIS is running in this iteration step.
 RMS of [F,P]:                                         0.00000000228569
 RMS of difference density:                            0.00000001540814
 Gap [au]:  0.45624546
 ALPHA OCC:   5
 BETA  OCC:   5
 
 ***HARTREE-FOCK ENERGY IN STEP  10 IS        -56.2233198216069709 [AU]
 
 Step comparison  Energy Drift [au]  DIIS error drift  Gradient drift
        9            2.0769E-11         2.6250E-08       3.6671E-06
 ======================================================================
 ITERATION STEP  11
 CPU time [min]:     2.143                   Wall time [min]:     0.047
 

 SCF control                  : diis
 Damping factor/level shift   : 0.000/0.000
 DIIS [start/end/frequency]   :   2 /200 /  1

 Constructing Fock-matrix...
 
 Pipek-Mezey localization...
 Step  Convergence
   1   0.041933972002
   2   0.038761026506
   3   0.000290182254
   4   0.000006895087
   5   0.000000154140
   6   0.000000004636
   7   0.000000000149
   8   0.000000000005
   9   0.000000000000
 CPU time [min]:     2.166                   Wall time [min]:     0.048
 
 Constructing local fitting domains...
 Local fitting domains are unchanged.
 
 First step of Coulomb + first step of exchange...
 Exchange contribution is evaluated for MOs 1 to 5.
   1% done.
  13% done.
  25% done.
  40% done.
  53% done.
  67% done.
  84% done.
 100% done.
 Fitting and assembly step of exchange...
 CPU time [min]:     2.285                   Wall time [min]:     0.050
 
 Second step of Coulomb...
   1% done.
  13% done.
  25% done.
  40% done.
  53% done.
  67% done.
  84% done.
 100% done.
 CPU time [min]:     2.327                   Wall time [min]:     0.050
 
 Gradient norm:      2.1502E-08
 DIIS is running in this iteration step.
 RMS of [F,P]:                                         0.00000000023232
 RMS of difference density:                            0.00000000087085
 Gap [au]:  0.45624547
 ALPHA OCC:   5
 BETA  OCC:   5
 
 ***HARTREE-FOCK ENERGY IN STEP  11 IS        -56.2233198216071557 [AU]
 
 Step comparison  Energy Drift [au]  DIIS error drift  Gradient drift
       10            1.8474E-13         2.0534E-09       2.3333E-07
 
 The SCF iteration has converged.
 An extra iteration will be performed to calculate accurate SCF energy.
 
 ======================================================================
 ITERATION STEP  12
 CPU time [min]:     2.353                   Wall time [min]:     0.051
 

 SCF control                  : diis
 Damping factor/level shift   : 0.000/0.000
 DIIS [start/end/frequency]   :   2 /200 /  1

 Constructing Fock-matrix...
 
 Pipek-Mezey localization...
 Step  Convergence
   1   0.041498205621
   2   0.038111532321
   3   0.000340089305
   4   0.000007222921
   5   0.000000180640
   6   0.000000005928
   7   0.000000000178
   8   0.000000000006
   9   0.000000000000
 CPU time [min]:     2.376                   Wall time [min]:     0.051
 
 Constructing local fitting domains...
 Local fitting domains are unchanged.
 
 First step of Coulomb + first step of exchange...
 Exchange contribution is evaluated for MOs 1 to 5.
   1% done.
  13% done.
  25% done.
  40% done.
  53% done.
  67% done.
  84% done.
 100% done.
 Fitting and assembly step of exchange...
 CPU time [min]:     2.494                   Wall time [min]:     0.053
 
 Second step of Coulomb...
   1% done.
  13% done.
  25% done.
  40% done.
  53% done.
  67% done.
  84% done.
 100% done.
 CPU time [min]:     2.537                   Wall time [min]:     0.054
 
 Gradient norm:      4.8080E-09
 RMS of [F,P]:                                         0.00000000005698
 RMS of difference density:                            0.00000000013651
 Gap [au]:  0.45624546
 ALPHA OCC:   5
 BETA  OCC:   5
 
 ***HARTREE-FOCK ENERGY IN STEP  12 IS        -56.2233198216069994 [AU]
 
 Step comparison  Energy Drift [au]  DIIS error drift  Gradient drift
       11           -1.5632E-13         1.7534E-10       1.6694E-08
 Warning! The energy goes uphill (with respect to previous step).
 ======================================================================
 
 SUCCESS...
 THE SCF ITERATION HAS CONVERGED!
 
                   A   
 FINAL ALPHA OCC:   5
 FINAL BETA  OCC:   5
 
 ***FINAL HARTREE-FOCK ENERGY:        -56.2233198216069994 [AU]
 
 Orbital energies [au]:
      Irrep         Alpha          Beta
    1   A        -15.542842     -15.542842
    2   A         -1.138513      -1.138513
    3   A         -0.625506      -0.625506
    4   A         -0.625466      -0.625466
    5   A         -0.429749      -0.429749
 
    6   A          0.026496       0.026496
    7   A          0.043771       0.043771
    8   A          0.043772       0.043772
    9   A          0.097880       0.097880
   10   A          0.131951       0.131951
   11   A          0.139416       0.139416
   12   A          0.139417       0.139417
   13   A          0.183417       0.183417
   14   A          0.183420       0.183420
   15   A          0.188494       0.188494
   16   A          0.188496       0.188496
   17   A          0.209465       0.209465
   18   A          0.283495       0.283495
   19   A          0.292928       0.292928
   20   A          0.297560       0.297560
   21   A          0.297560       0.297560
   22   A          0.353460       0.353460
   23   A          0.381622       0.381622
   24   A          0.381633       0.381633
   25   A          0.389174       0.389174
   26   A          0.389175       0.389175
   27   A          0.423080       0.423080
   28   A          0.473355       0.473355
   29   A          0.473362       0.473362
   30   A          0.558471       0.558471
   31   A          0.558480       0.558480
   32   A          0.558972       0.558972
   33   A          0.594319       0.594319
   34   A          0.682815       0.682815
   35   A          0.682820       0.682820
   36   A          0.697724       0.697724
   37   A          0.700358       0.700358
   38   A          0.717397       0.717397
   39   A          0.717400       0.717400
   40   A          0.750653       0.750653
   41   A          0.778479       0.778479
   42   A          0.778502       0.778502
   43   A          0.780106       0.780106
   44   A          0.830052       0.830052
   45   A          0.830061       0.830061
   46   A          0.849672       0.849672
   47   A          0.857785       0.857785
   48   A          0.857793       0.857793
   49   A          0.873082       0.873082
   50   A          0.873095       0.873095
   51   A          0.980552       0.980552
   52   A          1.014329       1.014329
   53   A          1.014352       1.014352
   54   A          1.134355       1.134355
   55   A          1.222731       1.222731
   56   A          1.222736       1.222736
   57   A          1.353116       1.353116
[...]
  156    3     0.998637        1    2    4
  157    3     0.999384        2    3    4
  158    1     0.998222        4
  159    1     0.992095        4
  160    1     0.992097        4
  161    1     0.999788        4
  162    1     0.999081        4
  163    1     0.999081        4
  164    1     0.999991        4
  165    1     0.999990        4
  166    1     1.000000        4
  167    1     0.999990        4
  168    1     0.999991        4
  169    1     0.999904        4
  170    1     0.999906        4
  171    1     0.999997        4
  172    1     0.999906        4
  173    1     0.999904        4
  174    1     0.999767        4
  175    1     0.999781        4
  176    1     0.999993        4
  177    1     0.999781        4
  178    1     0.999767        4
  179    1     0.999900        4
  180    1     0.999905        4
  181    1     0.999998        4
  182    1     0.999905        4
  183    1     0.999900        4
  184    1     0.999998        4
  185    1     0.999996        4
  186    1     0.999999        4
  187    1     0.999998        4
  188    1     0.999999        4
  189    1     0.999996        4
  190    1     0.999999        4
  191    1     0.999985        4
  192    1     0.999962        4
  193    1     0.999996        4
  194    1     0.999986        4
  195    1     0.999996        4
  196    1     0.999962        4
  197    1     0.999993        4
  198    1     0.999988        4
  199    1     0.999965        4
  200    1     0.999996        4
  201    1     0.999988        4
  202    1     0.999996        4
  203    1     0.999965        4
  204    1     0.999994        4
  205    1     0.999994        4
  206    1     0.999997        4
  207    1     1.000000        4
  208    1     0.999995        4
  209    1     1.000000        4
  210    1     0.999995        4
  211    1     1.000000        4
  212    1     0.999999        4
  213    1     0.999994        4
  214    1     0.999981        4
  215    1     0.999992        4
  216    1     1.000000        4
  217    1     0.999983        4
  218    1     0.999999        4
  219    1     0.999983        4
  220    1     1.000000        4
  221    1     0.999996        4
  222    1     0.999981        4
 CPU time [min]:     0.092                   Wall time [min]:     0.004
 
 C1 point group was detected
 
 Constructing orbital domains...
 CPU time [min]:     0.159                   Wall time [min]:     0.005
 
 Dimensions of the primary domains:     Minimum / Average / Maximum
 
 Number of atoms in domain:                   4       4.0         4
 Number of atoms in occ BP domain:            1       1.8         2
 Number of atoms in PAO BP domain:            1       1.3         4
 Number of atomic orbitals:                 218     218.0       218
 Number of PAOs:                             80     114.5       126
 
 Prescreening pairs...
 CPU time [min]:     0.178                   Wall time [min]:     0.006
 
 Occupied LMO domain definition with Boughton-Pulay completeness:    0.9999900000
 
   MO  Natoms  Completeness   Atoms
    1    4     1.000000        1    2    3    4
    2    4     1.000000        1    2    3    4
    3    4     1.000000        1    2    3    4
    4    4     1.000000        1    2    3    4
 
 Executing the Boughton-Pulay algorithm...
  with occ MO completeness:    0.9850000000
 
   MO  Natoms  Completeness   Atoms
    1    1     0.999819        4
    2    2     0.999931        3    4
    3    2     0.999931        1    4
    4    2     0.999931        2    4
 CPU time [min]:     0.210                   Wall time [min]:     0.006
 
 Dimensions of the occupied LMO domains:  Minimum / Average / Maximum
 
 Number of atoms in domain:                   4       4.0         4
 Number of atomic orbitals:                 218     218.0       218
 
 Total number of pairs:   6
 Number of distant pairs: 0 (0.0%)
 Sum of multipole based pair energies:      0.0000000000
 
 CPU time [min]:     0.217                   Wall time [min]:     0.006
 Number of strong pairs: 6 (100.0%)
 chtol from minp:   1.000000000000000E-006
        1.85 MB memory is used for domain independent quantities
 
 Calculating the contribution of occupied LMOs...
    using local fitting domains
 
 MO:     1
 Number of atoms in domain:       4
    Number of atoms in PCD:       4
 Number of atomic orbitals:     218
 Number of atoms for local DF:    4
 Number of fitting functions:   408 (100.00%)
 Number of occupied orbitals:     4
 Number of virtual  orbitals:   213
 Number of Cholesky vectors:     10
 MP2 energy in ED [au]:          -0.065317494077
 Number of occupied LNOs:         4 (100.00%)
 Number of virtual  LNOs:       129  (60.56%)
 Number of Cholesky vectors:     10
 MP2 energy in LIS [au]:         -0.065267090566
 Correction for frozen LNO [au]: -0.000050403511     (0.077%)
 Number of NAFs:                400  (98.04%)
 CPU time [min]:     2.413                   Wall time [min]:     0.062
 

 Direct DF-CCSD(T) calculation
 
 Convergence criterion:  1.0E-05
 
 Number of occupied/virtual/auxiliary orbitals:     4   129   400
    220.40 MB is the minimal memory requirement for (T)
     94.64 MB is the minimal memory requirement for CCSD
 
 MP2 correlation energy [au]:       -0.251083802472
 
 LMP2 domain correlation energy contribution [au]:       -0.065267088591
 
 CPU time [min]:     2.502                   Wall time [min]:     0.063
 
 
 Starting CCSD iterations...
 
                     Residual norm       Correlation Energy
 Iteration  1        0.156665864445       -0.255305478150
 Iteration  2        0.036842959435       -0.260509637811
 Iteration  3        0.012087537612       -0.261401611750
 Iteration  4        0.002345429269       -0.261376753069
 Iteration  5        0.000737450653       -0.261398391389
 Iteration  6        0.000226308119       -0.261397797326
 Iteration  7        0.000058926437       -0.261397252825
 
 CCSD iteration has converged in  7 steps.
     1167.84 MB memory was utilized by CCSD
 
 T1 diagnostic:      8.230E-03            D1 diagnostic:      1.674E-02
 
 T1 contribution [au]:                         0.000000000000
 CCSD correlation energy [au]:                -0.066903100264
 
 CPU time [min]:     3.592                   Wall time [min]:     0.081
 
 Calculation of (T) correction...
 
 Laplace threshold, nquadmin:  1.00E-03   4
 Number of quadrature points:    4
 
      221.42 MB memory is utilized for (T)

 0%       25%       50%       75%       100%
 |---------|---------|---------|---------| 
 
 (T) correction [au]:                   -0.002481666986
 CCSD(T) correlation energy [au]:       -0.069384767250
 
 CPU time [min]:     4.363                   Wall time [min]:     0.094
 
 MO:     2
 Number of atoms in domain:       4
    Number of atoms in PCD:       4
 Number of atomic orbitals:     218
 Number of atoms for local DF:    4
 Number of fitting functions:   408 (100.00%)
 Number of occupied orbitals:     4
 Number of virtual  orbitals:   213
 Number of Cholesky vectors:     10
 MP2 energy in ED [au]:          -0.062968780530
 Number of occupied LNOs:         4 (100.00%)
 Number of virtual  LNOs:       129  (60.56%)
 Number of Cholesky vectors:      9
 MP2 energy in LIS [au]:         -0.062924567234
 Correction for frozen LNO [au]: -0.000044213296     (0.070%)
 Number of NAFs:                392  (96.08%)
 CPU time [min]:     6.222                   Wall time [min]:     0.142
 

 Direct DF-CCSD(T) calculation
 
 Convergence criterion:  1.0E-05
 
 Number of occupied/virtual/auxiliary orbitals:     4   129   392
    218.78 MB is the minimal memory requirement for (T)
     93.05 MB is the minimal memory requirement for CCSD
 
 MP2 correlation energy [au]:       -0.251249126478
 
 LMP2 domain correlation energy contribution [au]:       -0.062924558228
 
 CPU time [min]:     6.291                   Wall time [min]:     0.144
 
 
 Starting CCSD iterations...
 
                     Residual norm       Correlation Energy
 Iteration  1        0.157742388771       -0.255362349803
 Iteration  2        0.036666646389       -0.260601360668
 Iteration  3        0.011939986647       -0.261436062003
 Iteration  4        0.002246787179       -0.261423486560
 Iteration  5        0.000603639955       -0.261443000469
 Iteration  6        0.000191190793       -0.261442685609
 Iteration  7        0.000048497093       -0.261442202130
 
 CCSD iteration has converged in  7 steps.
     1166.25 MB memory was utilized by CCSD
 
 T1 diagnostic:      8.052E-03            D1 diagnostic:      1.617E-02
 
 T1 contribution [au]:                         0.000000000000
 CCSD correlation energy [au]:                -0.065465761093
 
 CPU time [min]:     7.349                   Wall time [min]:     0.161
 
 Calculation of (T) correction...
 
 Laplace threshold, nquadmin:  1.00E-03   4
 Number of quadrature points:    4
 
      219.80 MB memory is utilized for (T)

 0%       25%       50%       75%       100%
 |---------|---------|---------|---------| 
 
 (T) correction [au]:                   -0.002163788780
 CCSD(T) correlation energy [au]:       -0.067629549873
 
 CPU time [min]:     7.955                   Wall time [min]:     0.171
 
 MO:     3
 Number of atoms in domain:       4
    Number of atoms in PCD:       4
 Number of atomic orbitals:     218
 Number of atoms for local DF:    4
 Number of fitting functions:   408 (100.00%)
 Number of occupied orbitals:     4
 Number of virtual  orbitals:   213
 Number of Cholesky vectors:     10
 MP2 energy in ED [au]:          -0.062970143796
 Number of occupied LNOs:         4 (100.00%)
 Number of virtual  LNOs:       129  (60.56%)
 Number of Cholesky vectors:      9
 MP2 energy in LIS [au]:         -0.062925923589
 Correction for frozen LNO [au]: -0.000044220206     (0.070%)
 Number of NAFs:                392  (96.08%)
 CPU time [min]:     9.820                   Wall time [min]:     0.219
 

 Direct DF-CCSD(T) calculation
 
 Convergence criterion:  1.0E-05
 
 Number of occupied/virtual/auxiliary orbitals:     4   129   392
    218.78 MB is the minimal memory requirement for (T)
     93.05 MB is the minimal memory requirement for CCSD
 
 MP2 correlation energy [au]:       -0.251248841072
 
 LMP2 domain correlation energy contribution [au]:       -0.062925914578
 
 CPU time [min]:     9.890                   Wall time [min]:     0.220
 
 
 Starting CCSD iterations...
 
                     Residual norm       Correlation Energy
 Iteration  1        0.157672169108       -0.255362093635
 Iteration  2        0.036658741776       -0.260601189075
 Iteration  3        0.011939538361       -0.261435790234
 Iteration  4        0.002246599061       -0.261423265393
 Iteration  5        0.000603551265       -0.261442759956
 Iteration  6        0.000191178796       -0.261442440593
 Iteration  7        0.000048482210       -0.261441959172
 
 CCSD iteration has converged in  7 steps.
     1166.25 MB memory was utilized by CCSD
 
 T1 diagnostic:      8.052E-03            D1 diagnostic:      1.617E-02
 
 T1 contribution [au]:                         0.000000000000
 CCSD correlation energy [au]:                -0.065467405899
 
 CPU time [min]:    10.974                   Wall time [min]:     0.237
 
 Calculation of (T) correction...
 
 Laplace threshold, nquadmin:  1.00E-03   4
 Number of quadrature points:    4
 
      219.80 MB memory is utilized for (T)

 0%       25%       50%       75%       100%
 |---------|---------|---------|---------| 
 
 (T) correction [au]:                   -0.002163899687
 CCSD(T) correlation energy [au]:       -0.067631305586
 
 CPU time [min]:    11.589                   Wall time [min]:     0.247
 
 MO:     4
 Number of atoms in domain:       4
    Number of atoms in PCD:       4
 Number of atomic orbitals:     218
 Number of atoms for local DF:    4
 Number of fitting functions:   408 (100.00%)
 Number of occupied orbitals:     4
 Number of virtual  orbitals:   213
 Number of Cholesky vectors:     10
 MP2 energy in ED [au]:          -0.062969631007
 Number of occupied LNOs:         4 (100.00%)
 Number of virtual  LNOs:       129  (60.56%)
 Number of Cholesky vectors:      9
 MP2 energy in LIS [au]:         -0.062925413300
 Correction for frozen LNO [au]: -0.000044217706     (0.070%)
 Number of NAFs:                392  (96.08%)
 CPU time [min]:    13.504                   Wall time [min]:     0.296
 

 Direct DF-CCSD(T) calculation
 
 Convergence criterion:  1.0E-05
 
 Number of occupied/virtual/auxiliary orbitals:     4   129   392
    218.78 MB is the minimal memory requirement for (T)
     93.05 MB is the minimal memory requirement for CCSD
 
 MP2 correlation energy [au]:       -0.251248945692
 
 LMP2 domain correlation energy contribution [au]:       -0.062925404265
 
 CPU time [min]:    13.574                   Wall time [min]:     0.297
 
 
 Starting CCSD iterations...
 
                     Residual norm       Correlation Energy
 Iteration  1        0.157482788605       -0.255362187221
 Iteration  2        0.036637782487       -0.260601486642
 Iteration  3        0.011938328098       -0.261435799223
 Iteration  4        0.002246041581       -0.261423414365
 Iteration  5        0.000603221357       -0.261442856494
 Iteration  6        0.000191123678       -0.261442523643
 Iteration  7        0.000048432565       -0.261442048312
 
 CCSD iteration has converged in  7 steps.
     1166.25 MB memory was utilized by CCSD
 
 T1 diagnostic:      8.052E-03            D1 diagnostic:      1.617E-02
 
 T1 contribution [au]:                         0.000000000000
 CCSD correlation energy [au]:                -0.065466793139
 
 CPU time [min]:    14.672                   Wall time [min]:     0.314
 
 Calculation of (T) correction...
 
 Laplace threshold, nquadmin:  1.00E-03   4
 Number of quadrature points:    4
 
      219.80 MB memory is utilized for (T)

 0%       25%       50%       75%       100%
 |---------|---------|---------|---------| 
 
 (T) correction [au]:                   -0.002163858286
 CCSD(T) correlation energy [au]:       -0.067630651425
 
 CPU time [min]:    15.283                   Wall time [min]:     0.325
 
 **********************************************************************
 Dimensions of the extended domains:    Minimum / Average / Maximum
 
 Number of atoms in domain:                   4       4.0         4
 Number of atomic orbitals:                 218     218.0       218
 Number of fitting functions:               408     408.0       408
 Number of occupied localized MOs:            4       4.0         4
 Number of PAOs:                            213     213.0       213
 Number of occupied LNOs:                     4       4.0         4
 Number of virtual  LNOs:                   129     129.0       129
 Number of NAFs:                            392     394.0       400
 
 **********************************************************************
 Distant (and weak) pair contributions, corrections
 
 Sum of pair energies [au]:                     0.000000000000    (0.000%)
 Sum of energy corrections [au]:               -0.000183054720    (0.072%)
 Pair energies + LNO corrections [au]:         -0.000183054720
 Sum of LMP2 contributions [au]:               -0.254226049409
 
 **********************************************************************
  Time of manipulations in the EDs:      max CPU/Wall [s]  all CPU/Wall [min]
 
 PD construction & multipole pair E      12.91     0.24     0.22     0.00
 Construct MO basis of the ED             1.85     0.03     0.11     0.00
 (mu,nu|P) evaluation & trf 2 (ai|P)      8.38     0.13     0.45     0.01
 Evaluate MP2 energy of the ED            0.28     0.00     0.02     0.00
 Transformations to the LNO basis         2.12     0.03     0.14     0.00
 Build W_PQ (Jai or Jpi part)             0.68     0.02     0.02     0.00
 Evaluate MP2 energy of the LIS           0.19     0.00     0.01     0.00
 (mu,nu|P) evaluation & trf 2 J(abQ)     99.13     2.22     5.83     0.13
 Total of the above for all EDs         112.63     2.44     6.58     0.14
 
 **********************************************************************
 Maximum memory requirement [MB]:       
 
 PD construction & multipole pair E          4.2
 AO integral evaluation in the EDs        3002.4
 (mu,nu|P) evaluation & trf 2 (aI|P)      3034.0
 Evaluate MP2 energy in the EDs             20.0
 Transformation to the LNO basis            10.8
 (mu,nu|P) to Jab transformation          3009.7
 Evaluate MP2 energy in the LIS             13.8
 Minimum requirement for LIS CCSD           94.6
 Actually allocated  for LIS CCSD         1167.8
 Minimum requirement for LIS (T)           220.4
 Actually allocated  for LIS (T)           221.4
 
 ======================================================================
 ======================================================================
 
 
 
 ======================================================================
 ======================================================================
 
 Final local CC results:
 
 Minimum number of correlated electrons:         8       (100.0%)
 Maximum number of correlated electrons:         8       (100.0%)
 Average number of correlated electrons:         8.0     (100.0%)
 Minimum number of correlated orbitals:        133       ( 61.3%)
 Maximum number of correlated orbitals:        133       ( 61.3%)
 Average number of correlated orbitals:        133.0     ( 61.3%)
 
 CPU time for integral calculations [min]:                  0.427
 Wall time for integral calculations [min]:                 0.009
 
 CPU time for SCF calculation [min]:                        2.721
 Wall time for SCF calculation [min]:                       0.087
 
 CPU time for orbital localization [min]:                   0.217
 Wall time for orbital localization [min]:                  0.035
 
 CPU time for integral transformations [min]:               8.148
 Wall time for integral transformations [min]:              0.208
 
 Reference energy [au]:                                   -56.223319821607
 
 LMP2 correlation energy [au]:                             -0.254226049409
 Total LMP2 energy [au]:                                  -56.477545871016
 
 Total MP2 correction for dropped NAFs [au]:               -0.000000029028
 Total MP2 correction [au]:                                -0.000183083748
 
 CPU time for CCSD calculations [min]:                      4.579
 Total CPU time for CCSD [min]:                            16.091
 Wall time for CCSD calculations [min]:                     0.074
 Total wall time for CCSD [min]:                            0.413
 
 CCSD correlation energy [au]:                             -0.263303060394
 Total CCSD energy [au]:                                  -56.486622882001
 CCSD correlation energy + 0.5 MP2 corrections [au]:       -0.263394602268
 Total LNO-CCSD energy with MP2 corrections [au]:         -56.486714423875
 
 CPU time for (T) corrections [min]:                        2.604
 Total CPU time for CCSD(T) [min]:                         18.695
 Wall time for (T) corrections [min]:                       0.044
 Total wall time for CCSD(T) [min]:                         0.457
 
 Total (T) correlation energy contribution [au]:           -0.008973213739
 Total (T) correlation energy+0.5 MP2 correction [au]:     -0.009064755613
 CCSD(T) correlation energy [au]:                          -0.272276274134
 Total CCSD(T) energy [au]:                               -56.495596095741
 CCSD(T) correlation energy + MP2 corrections [au]:        -0.272459357882
 Total LNO-CCSD(T) energy with MP2 corrections [au]:      -56.495779179489
 
 ======================================================================
 ======================================================================
 
 ************************ 2026-02-26 16:01:45 *************************
                      Normal termination of mrcc.
 **********************************************************************
