 **********************************************************************
                          MRCC program system
 **********************************************************************
 
                              Written by
     Mihaly Kallay, Peter R. Nagy, David Mester, Laszlo Gyevi-Nagy,
        Jozsef Csoka, P. Bernat Szabo, Zoltan Rolik, Gyula Samu,
     Jozsef Csontos, Bence Hegely, Adam Ganyecz, Istvan Ladjanszki,
       Lorant Szegedy, Bence Ladoczki, Klara Petrov, Mate Farkas,
                    Pal D. Mezei, and Reka A. Horvath
 
        Department of Physical Chemistry and Materials Science
            Budapest University of Technology and Economics
                  Budapest P.O.Box 91, H-1521 Hungary
 
                              www.mrcc.hu
 
                     Release date: August 28, 2023

 ************************ 2026-02-27 00:01:29 *************************
 Executing minp...

 Reading input from MINP...
 
 Input file:
 
charge=0
mult=1
calc=LNO-CCSD(T)
basis=aug-cc-pVDZ
symm=off
verbosity=3
unit=angs
scfalg=locfit1
scfmaxit=200
scftol=8
basis_sm=def2-SVP
usedisk=0
aocd=extra
chtol=1d-6
iesttol=0.001
scfiguess=small
lcorthr=tight
mem=46GB
ghost=serialno
5-12

geom=xyz
12

N      3.60995473454    1.52057191074    4.08577558721
H      4.42722968319    1.16893531034    4.59786809656
H      3.96163147006    2.03264798552    3.26841604077
H      3.09781293566    0.70333789254    3.73416418411
N      4.08580437245    3.60992628524    6.65101993408
H      3.73412022664    3.09785482065    5.83367042895
H      4.59792989480    4.42715858900    6.29942160276
H      3.26851213636    3.96156461954    7.16312088514
N      1.04470516527    6.17517805385    1.04472620470
H      1.86198065727    6.52681551807    0.53263274880
H      1.39638040304    5.66310276511    1.86208371977
H      0.53256262530    6.99241282917    1.39633599251
 
 
 Checking keyword combinations...
 
 Keywords:
 
 active=none
 agrid=ld0006-ld0590
 agrid_pssp=ld0006-ld0194
 agrid_pssp_sm=ld0006-ld0074
 basis=aug-cc-pvdz
 basis_sm=def2-svp
 basopt=off
 bfbasis=none
 bfgsmem=10
 bfgstol=1.0d-3
 boysalg=jacobi
 bpcompo=0.985
 bpcompv=0.98
 bpdfo=0.985
 bpocc=0.99995d0
 bppdo=0.999d0
 bppdv=0.98
 bpedo=0.99995d0
 bpedv=0.995d0
 calc=ccsd(t)
 ccmaxit=50
 ccprog=ccsd
 ccsdalg=dfdirect
 ccsdmkl=seq
 ccsdrest=off
 ccsdthreads=2
 cctol=5
 charge=0
 cialg=direct
 ciguess=off
 cmpgrp=auto
 comprest=off
 coord_sys=ric
 core=frozen
 corembed=off
 csapprox=off
 cvs=off
 dboc=off
 delocsomofact=
 dendec=cholesky
 dens=0
 denscorr=0
 dfalg=lineq
 dfbasis_cab=none
 dfbasis_cor=auto
 dfbasis_scf=auto
 dfbasis_scf_sm=auto
 dfintran=drpa
 dft=off
 dhexc=adc(2)
 diag=david
 docc=
 domrad=10.d0
 drpaalg=auto
 dual=off
 dual_df=off
 ecp=auto
 edisp=off
 edisp_embed=off
 embed=off
 epairestfact=off
 epairscale=1.d0
 etemp=300
 epert=none
 eps=
 espcharge=off
 excrad=1.0
 excrad_fin=0.100000000D-02
 fitting=coulomb
 fmm=off
 fmmord=8
 fnonorb=
 freq=off
 gamma=1.d0
 gauss=spher
 geom=xyz
 gopt=off
 ghost=serialno
 gtol=7
 grdens=off
 grid=auto
 grid_sm=auto
 gridbatch_cos=2000
 grtol=10
 guido_ct=off
 hamilton=dc
 iface=none
 intalg=auto
 ip_ea=off
 itol=12
 laptol=1.d-3
 lccoporder=lccfirst
 lcorthr=tight
 lccrest=off
 ldfgrad_tol=8
 lmp2dens=on
 lnoepso=3e-6
 lnoepsv=3e-7
 localcc=2021
 localcorrsymm=off
 locintrf=direct
 mact=
 maxact=off
 maxdim=200
 maxex=0
 maxmicroit=100
 mcscfiguess=hf
 mem=46gb
 mmprog=
 molden=on
 mpitasks=1
 mulmet=3
 mult=1
 nab=off
 nacto=0
 nactv=0
 naf_amp=3.16d-3
 naf_cor=1e-2
 naf_f12=off
 naf_scf=off
 nafalg=albe
 nafdens=off
 naftyp=jpq
 nchol=auto
 ndeps=1e-3
 nstate=1
 nsing=0
 nto=off
 ntrip=0
 num_grad=off
 occ=
 occri=off
 oniom=off
 oniom_eechg=off
 oniom_pcm=off
 oniom_qcorr=off
 optalg=
 optmaxit=50
 optetol=1e-6
 optex=0
 optgtol=1e-4
 optstol=1e-3
 orblocc=off
 orbloce=off
 orbloco=boys
 orblocv=pao
 orblocguess=cholesky
 osveps=-1.d0
 ovirt=off
 ovltol=1e-7
 ovosnorb=80.0
 pao_subsys_tol=1e-3
 pcm=off
 popul=off
 pressure=100000
 pssp=off
 ptfreq=0.0
 ptthreads=2
 qmreg=
 qmmm=off
 qro=off
 qscf=off
 redcost_exc=off
 redcost_tddft=0.985d0
 refdet=none
 rest=0
 rgrid=log3
 rism=off
 rohfcore=standard
 rohftype=semicanonical
 scfalg=locfit1
 scf_conv=auto
 scfdamp=0.0d0
 scfdamp_mode=off
 scfdamp_end=200
 scfdamp_dampstep=0.d0
 scfdamp_dtol=0.0d0
 scfdamp_maxfact=0.0d0
 scfdamp_minfact=0.0d0
 scfdiis=on
 scfdiis_dtol=0.0d0
 scfdiis_end=200
 scfdiis_start=2
 scfdiis_step=1
 scfdiis_watch=off
 scfdiis_wrange=10
 scfdiis_wlimit=5
 scfdiis_delmax=2
 scfdtol=9
 scfext=10
 scfguessdens=
 scfiguess=small
 scfloc=pm
 scflshift=0.20
 scflshift_end=8
 scflshift_dtol=0.0
 scflshift_gaptol=0.20
 scfmaxit=200
 scftype=
 scftol=8
 scspe=1.d0
 scsph=1.d0
 scsps=1.2d0
 scsps_t=1.2d0
 scspt=0.33333333333333
 scspt_t=0.33333333333333
 scspv=1.d0
 spairtol=-1.d0
 sqmprog=
 subminp=top
 symm=0
 talg=lapl
 temp=298.15
 test=off
 theodore=off
 tlmo=0.999
 tpao=0.94
 tprint=off
 uncontract=off
 unit=angs
 usedisk=0
 verbosity=3
 wpairtol=3.d-6
 
 Calculating integrals for small-basis SCF...

 ************************ 2026-02-27 00:01:29 *************************
 Executing integ...

 Allocation of 46.0 Gbytes of memory...
 
 
 Number of atoms:                 12
 Charge:                           0
 Number of electrons:             10
 Number of core electrons:         2
 Spin multiplicity:                1
 
                 Cartesian coordinates [bohr]      Atomic mass [AMU]  Z
   1  N     6.82182577    2.87346447    7.72099687    14.003074       7
   2  H     8.36625160    2.20896759    8.68871146     1.007825       1
   3  H     7.48639849    3.84114800    6.17641118     1.007825       1
   4  H     5.85401804    1.32911599    7.05654762     1.007825       1
   5  N     7.72105127    6.82177201   12.56860613     0.000000       0
   6  H     7.05646455    5.85409719   11.02403942     0.000000       0
   7  H     8.68882825    8.36611725   11.90418158     0.000000       0
   8  H     6.17659278    7.48627216   13.53633668     0.000000       0
   9  N     1.97420664   11.66939530    1.97424640     0.000000       0
  10  H     3.51863349   12.33389380    1.00653002     0.000000       0
  11  H     2.63877653   10.70171325    3.51882825     0.000000       0
  12  H     1.00639751   13.21374520    2.63869260     0.000000       0
 
 This molecule is an asymmetric top.
 
 Point group: C1  
 Computational point group: C1  
 
 Cartesian coordinates in standard orientation [bohr]
   1  N     0.93777333    0.48337791    0.05867964
   2  H     2.58298617   -0.08342812   -0.79880761
   3  H    -0.30446864    0.96947607   -1.34999233
   4  H     1.33752451    2.10034674    1.05304761
   5  N     0.88600559   -5.83266148    0.10363538
   6  H     0.52739065   -3.94291915    0.35666828
   7  H    -0.20239819   -6.42759681   -1.38783492
   8  H     0.24375294   -6.75438874    1.68519956
   9  N   -10.62941341    0.18075923    0.09822887
  10  H   -10.97729148    0.27749720   -1.80779058
  11  H    -8.82892656   -0.50760876    0.31775425
  12  H   -11.84213810   -1.14164168    0.83559891
 
 Nuclear repulsion energy [au]:         11.785794585729
 
Warning: for H atoms in the case of dfbasis_scf=auto the AO basis is set as dfbasis_scf instead of def2-qzvp(pd)-ri-jk because the AO basis is larger. Set the dfbasis_scf=def2-qzvp(pd)-ri-jk in MINP if that is desired.
 
 
 Basis set information:
 
 Maximum angular momentum: g
 Maximum number of contracted Gaussians:   10
 Maximum number of primitive Gaussians:    14
 Spherical harmonic GTOs are used.
 
 
 Conventional basis set:
 
   1  N  def2-svp [ 7s 4p 1d | 3s 2p 1d ]
   2  H  def2-svp [ 4s 1p | 2s 1p ]
   3  H  def2-svp [ 4s 1p | 2s 1p ]
   4  H  def2-svp [ 4s 1p | 2s 1p ]
   5  N  def2-svp [ 7s 4p 1d | 3s 2p 1d ]
   6  H  def2-svp [ 4s 1p | 2s 1p ]
   7  H  def2-svp [ 4s 1p | 2s 1p ]
   8  H  def2-svp [ 4s 1p | 2s 1p ]
   9  N  def2-svp [ 7s 4p 1d | 3s 2p 1d ]
  10  H  def2-svp [ 4s 1p | 2s 1p ]
  11  H  def2-svp [ 4s 1p | 2s 1p ]
  12  H  def2-svp [ 4s 1p | 2s 1p ]
 
 Basis functions:
            1             2             3             4             5             6             7             8             9            10
    0    1N1s          1N2s          1N3s          1N1pz         1N1py         1N1px         1N2pz         1N2py         1N2px         1N1d-2    
    1    1N1d-1        1N1d0         1N1d+1        1N1d+2        2H1s          2H2s          2H1pz         2H1py         2H1px         3H1s      
    2    3H2s          3H1pz         3H1py         3H1px         4H1s          4H2s          4H1pz         4H1py         4H1px         5N1s      
    3    5N2s          5N3s          5N1pz         5N1py         5N1px         5N2pz         5N2py         5N2px         5N1d-2        5N1d-1    
    4    5N1d0         5N1d+1        5N1d+2        6H1s          6H2s          6H1pz         6H1py         6H1px         7H1s          7H2s      
    5    7H1pz         7H1py         7H1px         8H1s          8H2s          8H1pz         8H1py         8H1px         9N1s          9N2s      
    6    9N3s          9N1pz         9N1py         9N1px         9N2pz         9N2py         9N2px         9N1d-2        9N1d-1        9N1d0     
    7    9N1d+1        9N1d+2       10H1s         10H2s         10H1pz        10H1py        10H1px        11H1s         11H2s         11H1pz     
    8   11H1py        11H1px        12H1s         12H2s         12H1pz        12H1py        12H1px     
 
 Maximum number of basis functions per shell:    6
 Total number of basis functions:     87
 
 
 Fitting basis set for the SCF calculation:
 
   1  N  def2-qzvpp-ri-jk [ 14s 10p 6d 2f 1g | 10s 8p 4d 2f 1g ]
   2  H  def2-qzvpp [ 7s 3p 2d 1f | 4s 3p 2d 1f ]
   3  H  def2-qzvpp [ 7s 3p 2d 1f | 4s 3p 2d 1f ]
   4  H  def2-qzvpp [ 7s 3p 2d 1f | 4s 3p 2d 1f ]
   5  N  def2-qzvpp-ri-jk [ 14s 10p 6d 2f 1g | 10s 8p 4d 2f 1g ]
   6  H  def2-qzvpp [ 7s 3p 2d 1f | 4s 3p 2d 1f ]
   7  H  def2-qzvpp [ 7s 3p 2d 1f | 4s 3p 2d 1f ]
   8  H  def2-qzvpp [ 7s 3p 2d 1f | 4s 3p 2d 1f ]
   9  N  def2-qzvpp-ri-jk [ 14s 10p 6d 2f 1g | 10s 8p 4d 2f 1g ]
  10  H  def2-qzvpp [ 7s 3p 2d 1f | 4s 3p 2d 1f ]
  11  H  def2-qzvpp [ 7s 3p 2d 1f | 4s 3p 2d 1f ]
  12  H  def2-qzvpp [ 7s 3p 2d 1f | 4s 3p 2d 1f ]
 
 Basis functions:
            1             2             3             4             5             6             7             8             9            10
    0    1N1s          1N2s          1N3s          1N4s          1N5s          1N6s          1N7s          1N8s          1N9s          1N10s     
    1    1N1pz         1N1py         1N1px         1N2pz         1N2py         1N2px         1N3pz         1N3py         1N3px         1N4pz     
    2    1N4py         1N4px         1N5pz         1N5py         1N5px         1N6pz         1N6py         1N6px         1N7pz         1N7py     
    3    1N7px         1N8pz         1N8py         1N8px         1N1d-2        1N1d-1        1N1d0         1N1d+1        1N1d+2        1N2d-2    
    4    1N2d-1        1N2d0         1N2d+1        1N2d+2        1N3d-2        1N3d-1        1N3d0         1N3d+1        1N3d+2        1N4d-2    
    5    1N4d-1        1N4d0         1N4d+1        1N4d+2        1N1f-3        1N1f-2        1N1f-1        1N1f0         1N1f+1        1N1f+2    
    6    1N1f+3        1N2f-3        1N2f-2        1N2f-1        1N2f0         1N2f+1        1N2f+2        1N2f+3        1N1g-4        1N1g-3    
    7    1N1g-2        1N1g-1        1N1g0         1N1g+1        1N1g+2        1N1g+3        1N1g+4        2H1s          2H2s          2H3s      
    8    2H4s          2H1pz         2H1py         2H1px         2H2pz         2H2py         2H2px         2H3pz         2H3py         2H3px     
    9    2H1d-2        2H1d-1        2H1d0         2H1d+1        2H1d+2        2H2d-2        2H2d-1        2H2d0         2H2d+1        2H2d+2    
   10    2H1f-3        2H1f-2        2H1f-1        2H1f0         2H1f+1        2H1f+2        2H1f+3        3H1s          3H2s          3H3s      
   11    3H4s          3H1pz         3H1py         3H1px         3H2pz         3H2py         3H2px         3H3pz         3H3py         3H3px     
   12    3H1d-2        3H1d-1        3H1d0         3H1d+1        3H1d+2        3H2d-2        3H2d-1        3H2d0         3H2d+1        3H2d+2    
   13    3H1f-3        3H1f-2        3H1f-1        3H1f0         3H1f+1        3H1f+2        3H1f+3        4H1s          4H2s          4H3s      
   14    4H4s          4H1pz         4H1py         4H1px         4H2pz         4H2py         4H2px         4H3pz         4H3py         4H3px     
   15    4H1d-2        4H1d-1        4H1d0         4H1d+1        4H1d+2        4H2d-2        4H2d-1        4H2d0         4H2d+1        4H2d+2    
   16    4H1f-3        4H1f-2        4H1f-1        4H1f0         4H1f+1        4H1f+2        4H1f+3        5N1s          5N2s          5N3s      
   17    5N4s          5N5s          5N6s          5N7s          5N8s          5N9s          5N10s         5N1pz         5N1py         5N1px     
   18    5N2pz         5N2py         5N2px         5N3pz         5N3py         5N3px         5N4pz         5N4py         5N4px         5N5pz     
   19    5N5py         5N5px         5N6pz         5N6py         5N6px         5N7pz         5N7py         5N7px         5N8pz         5N8py     
   20    5N8px         5N1d-2        5N1d-1        5N1d0         5N1d+1        5N1d+2        5N2d-2        5N2d-1        5N2d0         5N2d+1    
   21    5N2d+2        5N3d-2        5N3d-1        5N3d0         5N3d+1        5N3d+2        5N4d-2        5N4d-1        5N4d0         5N4d+1    
   22    5N4d+2        5N1f-3        5N1f-2        5N1f-1        5N1f0         5N1f+1        5N1f+2        5N1f+3        5N2f-3        5N2f-2    
   23    5N2f-1        5N2f0         5N2f+1        5N2f+2        5N2f+3        5N1g-4        5N1g-3        5N1g-2        5N1g-1        5N1g0     
   24    5N1g+1        5N1g+2        5N1g+3        5N1g+4        6H1s          6H2s          6H3s          6H4s          6H1pz         6H1py     
   25    6H1px         6H2pz         6H2py         6H2px         6H3pz         6H3py         6H3px         6H1d-2        6H1d-1        6H1d0     
   26    6H1d+1        6H1d+2        6H2d-2        6H2d-1        6H2d0         6H2d+1        6H2d+2        6H1f-3        6H1f-2        6H1f-1    
   27    6H1f0         6H1f+1        6H1f+2        6H1f+3        7H1s          7H2s          7H3s          7H4s          7H1pz         7H1py     
   28    7H1px         7H2pz         7H2py         7H2px         7H3pz         7H3py         7H3px         7H1d-2        7H1d-1        7H1d0     
   29    7H1d+1        7H1d+2        7H2d-2        7H2d-1        7H2d0         7H2d+1        7H2d+2        7H1f-3        7H1f-2        7H1f-1    
   30    7H1f0         7H1f+1        7H1f+2        7H1f+3        8H1s          8H2s          8H3s          8H4s          8H1pz         8H1py     
   31    8H1px         8H2pz         8H2py         8H2px         8H3pz         8H3py         8H3px         8H1d-2        8H1d-1        8H1d0     
   32    8H1d+1        8H1d+2        8H2d-2        8H2d-1        8H2d0         8H2d+1        8H2d+2        8H1f-3        8H1f-2        8H1f-1    
   33    8H1f0         8H1f+1        8H1f+2        8H1f+3        9N1s          9N2s          9N3s          9N4s          9N5s          9N6s      
   34    9N7s          9N8s          9N9s          9N10s         9N1pz         9N1py         9N1px         9N2pz         9N2py         9N2px     
   35    9N3pz         9N3py         9N3px         9N4pz         9N4py         9N4px         9N5pz         9N5py         9N5px         9N6pz     
   36    9N6py         9N6px         9N7pz         9N7py         9N7px         9N8pz         9N8py         9N8px         9N1d-2        9N1d-1    
   37    9N1d0         9N1d+1        9N1d+2        9N2d-2        9N2d-1        9N2d0         9N2d+1        9N2d+2        9N3d-2        9N3d-1    
   38    9N3d0         9N3d+1        9N3d+2        9N4d-2        9N4d-1        9N4d0         9N4d+1        9N4d+2        9N1f-3        9N1f-2    
   39    9N1f-1        9N1f0         9N1f+1        9N1f+2        9N1f+3        9N2f-3        9N2f-2        9N2f-1        9N2f0         9N2f+1    
   40    9N2f+2        9N2f+3        9N1g-4        9N1g-3        9N1g-2        9N1g-1        9N1g0         9N1g+1        9N1g+2        9N1g+3    
   41    9N1g+4       10H1s         10H2s         10H3s         10H4s         10H1pz        10H1py        10H1px        10H2pz        10H2py     
   42   10H2px        10H3pz        10H3py        10H3px        10H1d-2       10H1d-1       10H1d0        10H1d+1       10H1d+2       10H2d-2    
   43   10H2d-1       10H2d0        10H2d+1       10H2d+2       10H1f-3       10H1f-2       10H1f-1       10H1f0        10H1f+1       10H1f+2    
   44   10H1f+3       11H1s         11H2s         11H3s         11H4s         11H1pz        11H1py        11H1px        11H2pz        11H2py     
   45   11H2px        11H3pz        11H3py        11H3px        11H1d-2       11H1d-1       11H1d0        11H1d+1       11H1d+2       11H2d-2    
   46   11H2d-1       11H2d0        11H2d+1       11H2d+2       11H1f-3       11H1f-2       11H1f-1       11H1f0        11H1f+1       11H1f+2    
   47   11H1f+3       12H1s         12H2s         12H3s         12H4s         12H1pz        12H1py        12H1px        12H2pz        12H2py     
   48   12H2px        12H3pz        12H3py        12H3px        12H1d-2       12H1d-1       12H1d0        12H1d+1       12H1d+2       12H2d-2    
   49   12H2d-1       12H2d0        12H2d+1       12H2d+2       12H1f-3       12H1f-2       12H1f-1       12H1f0        12H1f+1       12H1f+2    
   50   12H1f+3    
 
 Maximum number of basis functions per shell:   24
 Total number of basis functions:    501
 
 
 Initializing the SAD routines for the initial guess...
 Checking the files required for the initial guess...
 Atomic density files have been found for the atoms with the following serial numbers:
  
 Atomic density files have not been found for the atoms with the following serial numbers:
  1 2 3 4
 Generating SCFDENSITIES.N.def2-svp.0
 Generating SCFDENSITIES.H.def2-svp.0
 CPU time [min]:     0.217                   Wall time [min]:     0.138
 
 Character table for point group C1:
 
          E  
    A     1
 
 Number of basis functions per irrep:
    A      87
 
 
 Calculation of overlap integrals...
 CPU time [min]:     0.221                   Wall time [min]:     0.139
 
 Calculation of the square root of the overlap matrix...
 Minimum eigenvalue of the overlap matrix: 0.237024E-01
 CPU time [min]:     0.234                   Wall time [min]:     0.139
 
 Calculation of kinetic energy integrals...
 CPU time [min]:     0.235                   Wall time [min]:     0.139
 Calculation of dipole moment integrals...
 CPU time [min]:     0.235                   Wall time [min]:     0.139
 Calculation of nuclear attraction integrals...
 CPU time [min]:     0.237                   Wall time [min]:     0.139
 
 Calculation of prescreening integrals...
 CPU time [min]:     0.256                   Wall time [min]:     0.139
 
 Calculation of two-center Coulomb integrals...
   1% done.
  13% done.
  24% done.
  35% done.
  47% done.
  60% done.
  72% done.
  86% done.
  97% done.
 100% done.
 CPU time [min]:     0.268                   Wall time [min]:     0.140
 
 Cholesky decomposition of the two-center matrix...
 Reciprocal of the condition number:  0.816071E-05
 CPU time [min]:     0.296                   Wall time [min]:     0.140
 
 
 Running small-basis SCF...

 ************************ 2026-02-27 00:01:38 *************************
 Executing scf...

 @scfsetup: integrals calculated directly
            mrcc/integ direct run
 @scfsetup: calculating on full matrices
            not using symmetry adapted basis
 @scfsetup: diis switched on
 @scfsetup: number of steps to extrapolate from  10
 @scfsetup: tolerance in energy deviation    0.100000E-07
            tolerance in density deviation    0.100000E-08
 @scfsetup: maximum number of iterations: 200
 @scfsetup: restricted closed shell hf calc
 @scfsetup: starting scf from superposition of atomic densities
 @scfsetup: occupation set:
            from initial orbitals
 @scfsetup: Parameter-set for SCF acceleration: normal
 @scfsetup: diis runs from iteration:   2
 @scfsetup: diis runs to iteration: 200
 @scfsetup: diis runs in every iteration
 @scfsetup: diiswatch is disabled                   
 @scfsetup: diis dtol criteria to switch on:      0.0000E+00
           (or the iteration number below is reached)
 @scfsetup: static damping scheme
            iteration step criteria to turn damping off: 3
 @scfsetup: dynamic level shifting
            tolarance in HOMO-LUMO gap:  0.200
            tolarance in density deviation:     0.0000E+00
            iteration step criteria to turn level shifting off: 8
 Allocation of 46.0 Gbytes of memory...
 ======================================================================
 ITERATION STEP   1
 CPU time [min]:     0.031                   Wall time [min]:     0.009
 

 SCF control                  : initial
 Damping factor/level shift   : 0.000/0.200
 DIIS [start/end/frequency]   :   2 /200 /  1

 Constructing Fock-matrix...
 
 Pipek-Mezey localization...
 Step  Convergence
   1   0.865402111307
   2   0.000110229558
   3   0.000000748690
   4   0.000000016852
   5   0.000000000319
 CPU time [min]:     0.056                   Wall time [min]:     0.009
 
 Constructing local fitting domains...
 Maximum number of atoms in fitting domains:    5
 Average number of atoms in fitting domains:    5.0
 
 First step of Coulomb + first step of exchange...
 Exchange contribution is evaluated for MOs 1 to 5.
   1% done.
  14% done.
  25% done.
  37% done.
  49% done.
  60% done.
  72% done.
  83% done.
 100% done.
 Fitting and assembly step of exchange...
 CPU time [min]:     0.145                   Wall time [min]:     0.010
 
 Second step of Coulomb...
   1% done.
  14% done.
  25% done.
  37% done.
  49% done.
  60% done.
  72% done.
  83% done.
 100% done.
 CPU time [min]:     0.169                   Wall time [min]:     0.011
 
 Gradient norm:      2.3664E+00
 RMS of [F,P]:                                         0.02512765434199
 RMS of difference density:                            0.00916902817212
 Gap [au]:  0.67410084
 ALPHA OCC:   5
 BETA  OCC:   5
 
 ***HARTREE-FOCK ENERGY IN STEP   1 IS        -55.8598437933981060 [AU]
 ======================================================================
 ITERATION STEP   2
 CPU time [min]:     0.182                   Wall time [min]:     0.011
 

 SCF control                  : diis
 Damping factor/level shift   : 0.000/0.000
 DIIS [start/end/frequency]   :   2 /200 /  1

 Constructing Fock-matrix...
 
 Pipek-Mezey localization...
 Step  Convergence
   1   0.020370086970
   2   0.019517397255
   3   0.000177184634
   4   0.000000514805
   5   0.000000000183
 CPU time [min]:     0.205                   Wall time [min]:     0.012
 
 Constructing local fitting domains...
 Maximum number of atoms in fitting domains:    5
 Average number of atoms in fitting domains:    5.0
 
 First step of Coulomb + first step of exchange...
 Exchange contribution is evaluated for MOs 1 to 5.
   1% done.
  14% done.
  25% done.
  37% done.
  49% done.
  60% done.
  72% done.
  83% done.
 100% done.
 Fitting and assembly step of exchange...
 CPU time [min]:     0.280                   Wall time [min]:     0.013
 
 Second step of Coulomb...
   1% done.
  14% done.
  25% done.
  37% done.
  49% done.
  60% done.
  72% done.
  83% done.
 100% done.
 CPU time [min]:     0.303                   Wall time [min]:     0.013
 
 Gradient norm:      2.2079E-01
 DIIS is running in this iteration step.
 RMS of [F,P]:                                         0.00536767914588
 RMS of difference density:                            0.00441878611480
 Gap [au]:  0.48730039
 ALPHA OCC:   5
 BETA  OCC:   5
 
 ***HARTREE-FOCK ENERGY IN STEP   2 IS        -56.1240226986818556 [AU]
 
 Step comparison  Energy Drift [au]  DIIS error drift  Gradient drift
        1            2.6418E-01         1.9760E-02       2.1456E+00
        2            5.6124E+01         1.0000E-09       2.1456E+00
 ======================================================================
 ITERATION STEP   3
 CPU time [min]:     0.319                   Wall time [min]:     0.013
 

 SCF control                  : diis
 Damping factor/level shift   : 0.000/0.000
 DIIS [start/end/frequency]   :   2 /200 /  1

 Constructing Fock-matrix...
 
 Pipek-Mezey localization...
 Step  Convergence
   1   0.010248771318
   2   0.009938874694
   3   0.000000548333
   4   0.000000000048
 CPU time [min]:     0.342                   Wall time [min]:     0.014
 
 Constructing local fitting domains...
 Local fitting domains are unchanged.
 
 First step of Coulomb + first step of exchange...
 Exchange contribution is evaluated for MOs 1 to 5.
   1% done.
  14% done.
  25% done.
  37% done.
  49% done.
  60% done.
  72% done.
  83% done.
 100% done.
 Fitting and assembly step of exchange...
 CPU time [min]:     0.413                   Wall time [min]:     0.015
 
 Second step of Coulomb...
   1% done.
  14% done.
  25% done.
  37% done.
  49% done.
  60% done.
  72% done.
  83% done.
 100% done.
 CPU time [min]:     0.437                   Wall time [min]:     0.015
 
 Gradient norm:      1.1394E-01
 DIIS is running in this iteration step.
 RMS of [F,P]:                                         0.00261803839554
 RMS of difference density:                            0.00130118697732
 Gap [au]:  0.54997277
 ALPHA OCC:   5
 BETA  OCC:   5
 
 ***HARTREE-FOCK ENERGY IN STEP   3 IS        -56.1438177043803535 [AU]
 
 Step comparison  Energy Drift [au]  DIIS error drift  Gradient drift
        2            1.9795E-02         2.7496E-03       1.0686E-01
 ======================================================================
 ITERATION STEP   4
 CPU time [min]:     0.453                   Wall time [min]:     0.016
 

 SCF control                  : diis
 Damping factor/level shift   : 0.000/0.000
 DIIS [start/end/frequency]   :   2 /200 /  1

 Constructing Fock-matrix...
 
 Pipek-Mezey localization...
 Step  Convergence
   1   0.019985898758
   2   0.019641725400
   3   0.000001805293
   4   0.000000000144
 CPU time [min]:     0.476                   Wall time [min]:     0.016
 
 Constructing local fitting domains...
 Local fitting domains are unchanged.
 
 First step of Coulomb + first step of exchange...
 Exchange contribution is evaluated for MOs 1 to 5.
   1% done.
  14% done.
  25% done.
  37% done.
  49% done.
  60% done.
  72% done.
  83% done.
 100% done.
 Fitting and assembly step of exchange...
 CPU time [min]:     0.547                   Wall time [min]:     0.017
 
 Second step of Coulomb...
   1% done.
  14% done.
  25% done.
  37% done.
  49% done.
  60% done.
  72% done.
  83% done.
 100% done.
 CPU time [min]:     0.571                   Wall time [min]:     0.017
 
 Gradient norm:      1.6472E-02
 DIIS is running in this iteration step.
 RMS of [F,P]:                                         0.00033167855115
 RMS of difference density:                            0.00041534255867
 Gap [au]:  0.54221743
 ALPHA OCC:   5
 BETA  OCC:   5
 
 ***HARTREE-FOCK ENERGY IN STEP   4 IS        -56.1493358225832679 [AU]
 
 Step comparison  Energy Drift [au]  DIIS error drift  Gradient drift
        3            5.5181E-03         2.2864E-03       9.7464E-02
 ======================================================================
 ITERATION STEP   5
 CPU time [min]:     0.586                   Wall time [min]:     0.018
 

 SCF control                  : diis
 Damping factor/level shift   : 0.000/0.000
 DIIS [start/end/frequency]   :   2 /200 /  1

 Constructing Fock-matrix...
 
 Pipek-Mezey localization...
 Step  Convergence
   1   0.030050280567
   2   0.029603180150
   3   0.000003765187
   4   0.000000001947
 CPU time [min]:     0.609                   Wall time [min]:     0.018
 
 Constructing local fitting domains...
 Local fitting domains are unchanged.
 
 First step of Coulomb + first step of exchange...
 Exchange contribution is evaluated for MOs 1 to 5.
   1% done.
  14% done.
  25% done.
  37% done.
  49% done.
  60% done.
  72% done.
  83% done.
 100% done.
 Fitting and assembly step of exchange...
 CPU time [min]:     0.680                   Wall time [min]:     0.019
 
 Second step of Coulomb...
   1% done.
  14% done.
  25% done.
  37% done.
  49% done.
  60% done.
  72% done.
  83% done.
 100% done.
 CPU time [min]:     0.704                   Wall time [min]:     0.020
 
 Gradient norm:      2.2966E-03
 DIIS is running in this iteration step.
 RMS of [F,P]:                                         0.00006430121942
 RMS of difference density:                            0.00007897102479
 Gap [au]:  0.54248352
 ALPHA OCC:   5
 BETA  OCC:   5
 
 ***HARTREE-FOCK ENERGY IN STEP   5 IS        -56.1495414124923684 [AU]
 
 Step comparison  Energy Drift [au]  DIIS error drift  Gradient drift
        4            2.0559E-04         2.6738E-04       1.4175E-02
 ======================================================================
 ITERATION STEP   6
 CPU time [min]:     0.719                   Wall time [min]:     0.020
 

 SCF control                  : diis
 Damping factor/level shift   : 0.000/0.000
 DIIS [start/end/frequency]   :   2 /200 /  1

 Constructing Fock-matrix...
 
 Pipek-Mezey localization...
 Step  Convergence
   1   0.040125940804
   2   0.039919482006
   3   0.000014910307
   4   0.000000000573
 CPU time [min]:     0.742                   Wall time [min]:     0.020
 
 Constructing local fitting domains...
 Local fitting domains are unchanged.
 
 First step of Coulomb + first step of exchange...
 Exchange contribution is evaluated for MOs 1 to 5.
   1% done.
  14% done.
  25% done.
  37% done.
  49% done.
  60% done.
  72% done.
  83% done.
 100% done.
 Fitting and assembly step of exchange...
 CPU time [min]:     0.814                   Wall time [min]:     0.022
 
 Second step of Coulomb...
   1% done.
  14% done.
  25% done.
  37% done.
  49% done.
  60% done.
  72% done.
  83% done.
 100% done.
 CPU time [min]:     0.838                   Wall time [min]:     0.022
 
 Gradient norm:      4.7768E-04
 DIIS is running in this iteration step.
 RMS of [F,P]:                                         0.00000959065035
 RMS of difference density:                            0.00001514633087
 Gap [au]:  0.54250513
 ALPHA OCC:   5
 BETA  OCC:   5
 
 ***HARTREE-FOCK ENERGY IN STEP   6 IS        -56.1495480725959837 [AU]
 
 Step comparison  Energy Drift [au]  DIIS error drift  Gradient drift
        5            6.6601E-06         5.4711E-05       1.8189E-03
 ======================================================================
 ITERATION STEP   7
 CPU time [min]:     0.853                   Wall time [min]:     0.022
 

 SCF control                  : diis
 Damping factor/level shift   : 0.000/0.000
 DIIS [start/end/frequency]   :   2 /200 /  1

 Constructing Fock-matrix...
 
 Pipek-Mezey localization...
 Step  Convergence
   1   0.043141306338
   2   0.043738437153
   3   0.000031629045
   4   0.000000001803
   5   0.000000000003
   6   0.000000000000
 CPU time [min]:     0.876                   Wall time [min]:     0.023
 
 Constructing local fitting domains...
 Local fitting domains are unchanged.
 
 First step of Coulomb + first step of exchange...
 Exchange contribution is evaluated for MOs 1 to 5.
   1% done.
  14% done.
  25% done.
  37% done.
  49% done.
  60% done.
  72% done.
  83% done.
 100% done.
 Fitting and assembly step of exchange...
 CPU time [min]:     0.947                   Wall time [min]:     0.024
 
 Second step of Coulomb...
   1% done.
  14% done.
  25% done.
  37% done.
  49% done.
  60% done.
  72% done.
  83% done.
 100% done.
 CPU time [min]:     0.971                   Wall time [min]:     0.024
 
 Gradient norm:      1.1692E-04
 DIIS is running in this iteration step.
 RMS of [F,P]:                                         0.00000220940332
 RMS of difference density:                            0.00000422983068
 Gap [au]:  0.54246853
 ALPHA OCC:   5
 BETA  OCC:   5
 
 ***HARTREE-FOCK ENERGY IN STEP   7 IS        -56.1495482980524230 [AU]
 
 Step comparison  Energy Drift [au]  DIIS error drift  Gradient drift
        6            2.2546E-07         7.3812E-06       3.6076E-04
 ======================================================================
 ITERATION STEP   8
 CPU time [min]:     0.986                   Wall time [min]:     0.024
 

 SCF control                  : diis
 Damping factor/level shift   : 0.000/0.000
 DIIS [start/end/frequency]   :   2 /200 /  1

 Constructing Fock-matrix...
 
 Pipek-Mezey localization...
 Step  Convergence
   1   0.043133642761
   2   0.042108407696
   3   0.000037028403
   4   0.000000104804
   5   0.000000000300
   6   0.000000000001
 CPU time [min]:     1.009                   Wall time [min]:     0.025
 
 Constructing local fitting domains...
 Local fitting domains are unchanged.
 
 First step of Coulomb + first step of exchange...
 Exchange contribution is evaluated for MOs 1 to 5.
   1% done.
  14% done.
  25% done.
  37% done.
  49% done.
  60% done.
  72% done.
  83% done.
 100% done.
 Fitting and assembly step of exchange...
 CPU time [min]:     1.081                   Wall time [min]:     0.026
 
 Second step of Coulomb...
   1% done.
  14% done.
  25% done.
  37% done.
  49% done.
  60% done.
  72% done.
  83% done.
 100% done.
 CPU time [min]:     1.105                   Wall time [min]:     0.026
 
 Gradient norm:      1.4988E-05
 DIIS is running in this iteration step.
 RMS of [F,P]:                                         0.00000024847599
 RMS of difference density:                            0.00000042842516
 Gap [au]:  0.54246197
 ALPHA OCC:   5
 BETA  OCC:   5
 
 ***HARTREE-FOCK ENERGY IN STEP   8 IS        -56.1495483117098502 [AU]
 
 Step comparison  Energy Drift [au]  DIIS error drift  Gradient drift
        7            1.3657E-08         1.9609E-06       1.0194E-04
 ======================================================================
 ITERATION STEP   9
 CPU time [min]:     1.121                   Wall time [min]:     0.027
 

 SCF control                  : diis
 Damping factor/level shift   : 0.000/0.000
 DIIS [start/end/frequency]   :   2 /200 /  1

 Constructing Fock-matrix...
 
 Pipek-Mezey localization...
 Step  Convergence
   1   0.043322145693
   2   0.043696719885
   3   0.000048500316
   4   0.000000127713
   5   0.000000000788
   6   0.000000000006
   7   0.000000000000
 CPU time [min]:     1.144                   Wall time [min]:     0.027
 
 Constructing local fitting domains...
 Local fitting domains are unchanged.
 
 First step of Coulomb + first step of exchange...
 Exchange contribution is evaluated for MOs 1 to 5.
   1% done.
  14% done.
  25% done.
  37% done.
  49% done.
  60% done.
  72% done.
  83% done.
 100% done.
 Fitting and assembly step of exchange...
 CPU time [min]:     1.216                   Wall time [min]:     0.028
 
 Second step of Coulomb...
   1% done.
  14% done.
  25% done.
  37% done.
  49% done.
  60% done.
  72% done.
  83% done.
 100% done.
 CPU time [min]:     1.240                   Wall time [min]:     0.029
 
 Gradient norm:      3.8098E-06
 DIIS is running in this iteration step.
 RMS of [F,P]:                                         0.00000004930819
 RMS of difference density:                            0.00000013271436
 Gap [au]:  0.54246144
 ALPHA OCC:   5
 BETA  OCC:   5
 
 ***HARTREE-FOCK ENERGY IN STEP   9 IS        -56.1495483118775383 [AU]
 
 Step comparison  Energy Drift [au]  DIIS error drift  Gradient drift
        8            1.6769E-10         1.9917E-07       1.1178E-05
 ======================================================================
 ITERATION STEP  10
 CPU time [min]:     1.255                   Wall time [min]:     0.029
 

 SCF control                  : diis
 Damping factor/level shift   : 0.000/0.000
 DIIS [start/end/frequency]   :   2 /200 /  1

 Constructing Fock-matrix...
 
 Pipek-Mezey localization...
 Step  Convergence
   1   0.043435066120
   2   0.043741009253
   3   0.000028587149
   4   0.000000001773
   5   0.000000000004
   6   0.000000000000
 CPU time [min]:     1.278                   Wall time [min]:     0.029
 
 Constructing local fitting domains...
 Local fitting domains are unchanged.
 
 First step of Coulomb + first step of exchange...
 Exchange contribution is evaluated for MOs 1 to 5.
   1% done.
  14% done.
  25% done.
  37% done.
  49% done.
  60% done.
  72% done.
  83% done.
 100% done.
 Fitting and assembly step of exchange...
 CPU time [min]:     1.349                   Wall time [min]:     0.030
 
 Second step of Coulomb...
   1% done.
  14% done.
  25% done.
  37% done.
  49% done.
  60% done.
  72% done.
  83% done.
 100% done.
 CPU time [min]:     1.373                   Wall time [min]:     0.031
 
 Gradient norm:      9.4793E-07
 DIIS is running in this iteration step.
 RMS of [F,P]:                                         0.00000001278509
 RMS of difference density:                            0.00000004027900
 Gap [au]:  0.54246143
 ALPHA OCC:   5
 BETA  OCC:   5
 
 ***HARTREE-FOCK ENERGY IN STEP  10 IS        -56.1495483118880756 [AU]
 
 Step comparison  Energy Drift [au]  DIIS error drift  Gradient drift
        9            1.0537E-11         3.6523E-08       2.8619E-06
 ======================================================================
 ITERATION STEP  11
 CPU time [min]:     1.389                   Wall time [min]:     0.031
 

 SCF control                  : diis
 Damping factor/level shift   : 0.000/0.000
 DIIS [start/end/frequency]   :   2 /200 /  1

 Constructing Fock-matrix...
 
 Pipek-Mezey localization...
 Step  Convergence
   1   0.043577018353
   2   0.042184364305
   3   0.000006856406
   4   0.000000000764
   5   0.000000000001
   6   0.000000000000
 CPU time [min]:     1.412                   Wall time [min]:     0.032
 
 Constructing local fitting domains...
 Local fitting domains are unchanged.
 
 First step of Coulomb + first step of exchange...
 Exchange contribution is evaluated for MOs 1 to 5.
   1% done.
  14% done.
  25% done.
  37% done.
  49% done.
  60% done.
  72% done.
  83% done.
 100% done.
 Fitting and assembly step of exchange...
 CPU time [min]:     1.484                   Wall time [min]:     0.033
 
 Second step of Coulomb...
   1% done.
  14% done.
  25% done.
  37% done.
  49% done.
  60% done.
  72% done.
  83% done.
 100% done.
 CPU time [min]:     1.508                   Wall time [min]:     0.033
 
 Gradient norm:      8.9772E-08
 DIIS is running in this iteration step.
 RMS of [F,P]:                                         0.00000000134329
 RMS of difference density:                            0.00000000280037
 Gap [au]:  0.54246145
 ALPHA OCC:   5
 BETA  OCC:   5
 
 ***HARTREE-FOCK ENERGY IN STEP  11 IS        -56.1495483118887293 [AU]
 
 Step comparison  Energy Drift [au]  DIIS error drift  Gradient drift
       10            6.5370E-13         1.1442E-08       8.5816E-07
 ======================================================================
 ITERATION STEP  12
 CPU time [min]:     1.523                   Wall time [min]:     0.033
 

 SCF control                  : diis
 Damping factor/level shift   : 0.000/0.000
 DIIS [start/end/frequency]   :   2 /200 /  1

 Constructing Fock-matrix...
 
 Pipek-Mezey localization...
 Step  Convergence
   1   0.043322364179
   2   0.042114877545
   3   0.000004196301
   4   0.000000001408
   5   0.000000000003
   6   0.000000000000
 CPU time [min]:     1.547                   Wall time [min]:     0.034
 
 Constructing local fitting domains...
 Local fitting domains are unchanged.
 
 First step of Coulomb + first step of exchange...
 Exchange contribution is evaluated for MOs 1 to 5.
   1% done.
  14% done.
  25% done.
  37% done.
  49% done.
  60% done.
  72% done.
  83% done.
 100% done.
 Fitting and assembly step of exchange...
 CPU time [min]:     1.618                   Wall time [min]:     0.035
 
 Second step of Coulomb...
   1% done.
  14% done.
  25% done.
  37% done.
  49% done.
  60% done.
  72% done.
  83% done.
 100% done.
 CPU time [min]:     1.642                   Wall time [min]:     0.035
 
 Gradient norm:      5.9513E-09
 DIIS is running in this iteration step.
 RMS of [F,P]:                                         0.00000000014710
 RMS of difference density:                            0.00000000021560
 Gap [au]:  0.54246145
 ALPHA OCC:   5
 BETA  OCC:   5
 
 ***HARTREE-FOCK ENERGY IN STEP  12 IS        -56.1495483118887648 [AU]
 
 Step comparison  Energy Drift [au]  DIIS error drift  Gradient drift
       11            3.5527E-14         1.1962E-09       8.3820E-08
 
 The SCF iteration has converged.
 An extra iteration will be performed to calculate accurate SCF energy.
 
 ======================================================================
 ITERATION STEP  13
 CPU time [min]:     1.659                   Wall time [min]:     0.036
 

 SCF control                  : diis
 Damping factor/level shift   : 0.000/0.000
 DIIS [start/end/frequency]   :   2 /200 /  1

 Constructing Fock-matrix...
 
 Pipek-Mezey localization...
 Step  Convergence
   1   0.043435242017
   2   0.042117824358
   3   0.000006668339
   4   0.000000002547
   5   0.000000000007
   6   0.000000000000
 CPU time [min]:     1.682                   Wall time [min]:     0.036
 
 Constructing local fitting domains...
 Maximum number of atoms in fitting domains:   12
 Average number of atoms in fitting domains:    9.6
 
 First step of Coulomb + first step of exchange...
 Exchange contribution is evaluated for MOs 1 to 5.
   1% done.
  14% done.
  25% done.
  37% done.
  49% done.
  60% done.
  72% done.
  83% done.
 100% done.
 Fitting and assembly step of exchange...
 CPU time [min]:     1.764                   Wall time [min]:     0.037
 
 Second step of Coulomb...
   1% done.
  14% done.
  25% done.
  37% done.
  49% done.
  60% done.
  72% done.
  83% done.
 100% done.
 CPU time [min]:     1.788                   Wall time [min]:     0.038
 
 Gradient norm:      4.2649E-06
 RMS of [F,P]:                                         0.00000007575977
 RMS of difference density:                            0.00000020438053
 Gap [au]:  0.54246146
 ALPHA OCC:   5
 BETA  OCC:   5
 
 ***HARTREE-FOCK ENERGY IN STEP  13 IS        -56.1495486020215040 [AU]
 
 Step comparison  Energy Drift [au]  DIIS error drift  Gradient drift
       12            2.9013E-07        -7.5613E-08      -4.2590E-06
 Warning! The DIIS error goes uphill (with respect to previous step).
 Warning! The DIIS error goes uphill (with respect to step  12 ).
 Warning! The gradient goes uphill (with respect to previous step).
 Warning! The gradient goes uphill (with respect to step  12 ).
 ======================================================================
 
 SUCCESS...
 THE SCF ITERATION HAS CONVERGED!
 
                   A   
 FINAL ALPHA OCC:   5
 FINAL BETA  OCC:   5
 
 ***FINAL HARTREE-FOCK ENERGY:        -56.1495486020215040 [AU]
 
 Orbital energies [au]:
      Irrep         Alpha          Beta
    1   A        -15.544096     -15.544096
    2   A         -1.114942      -1.114942
    3   A         -0.619029      -0.619029
    4   A         -0.618706      -0.618706
    5   A         -0.420822      -0.420822
 
    6   A          0.121640       0.121640
    7   A          0.135077       0.135077
    8   A          0.180403       0.180403
    9   A          0.245865       0.245865
   10   A          0.248629       0.248629
   11   A          0.255812       0.255812
   12   A          0.268489       0.268489
   13   A          0.272819       0.272819
   14   A          0.327304       0.327304
   15   A          0.443799       0.443799
   16   A          0.467374       0.467374
   17   A          0.593535       0.593535
   18   A          0.617844       0.617844
   19   A          0.713988       0.713988
   20   A          0.716568       0.716568
   21   A          0.724257       0.724257
   22   A          0.730013       0.730013
   23   A          0.759205       0.759205
   24   A          0.786202       0.786202
   25   A          0.883541       0.883541
   26   A          1.071588       1.071588
   27   A          1.091668       1.091668
   28   A          1.120240       1.120240
   29   A          1.194075       1.194075
   30   A          1.455952       1.455952
   31   A          1.479878       1.479878
   32   A          1.576349       1.576349
   33   A          1.577558       1.577558
   34   A          1.592006       1.592006
   35   A          1.594687       1.594687
   36   A          1.605549       1.605549
   37   A          1.654580       1.654580
   38   A          1.764092       1.764092
   39   A          1.804693       1.804693
   40   A          1.863739       1.863739
   41   A          1.966365       1.966365
   42   A          1.966711       1.966711
   43   A          1.974871       1.974871
   44   A          1.981680       1.981680
   45   A          1.990928       1.990928
   46   A          2.074117       2.074117
   47   A          2.114436       2.114436
   48   A          2.275483       2.275483
   49   A          2.302669       2.302669
   50   A          2.414491       2.414491
   51   A          2.418439       2.418439
   52   A          2.445298       2.445298
   53   A          2.468683       2.468683
   54   A          2.469690       2.469690
   55   A          2.472505       2.472505
   56   A          2.483068       2.483068
   57   A          2.489586       2.489586
   58   A          2.490107       2.490107
   59   A          2.507296       2.507296
   60   A          2.528517       2.528517
   61   A          2.531969       2.531969
   62   A          2.760649       2.760649
   63   A          3.034286       3.034286
   64   A          3.065537       3.065537
   65   A          3.152252       3.152252
   66   A          3.157644       3.157644
   67   A          3.260448       3.260448
   68   A          3.689085       3.689085
   69   A          3.712262       3.712262
   70   A          4.016115       4.016115
   71   A          4.035777       4.035777
   72   A          4.035923       4.035923
   73   A          4.040231       4.040231
   74   A          4.051388       4.051388
   75   A          4.076767       4.076767
   76   A          4.156515       4.156515
   77   A          4.156734       4.156734
   78   A          4.174087       4.174087
   79   A          4.186025       4.186025
   80   A          4.889064       4.889064
   81   A          4.910573       4.910573
   82   A          6.048773       6.048773
   83   A          6.049084       6.049084
   84   A          6.062602       6.062602
   85   A          6.074637       6.074637
   86   A         26.595074      26.595074
   87   A         26.629090      26.629090
 
 RETURNING FROM SCF ALGORITHM
 ======================================================================

 ************************ 2026-02-27 00:01:41 *************************
 Executing integ...

 Allocation of 46.0 Gbytes of memory...
 
 
 Number of atoms:                 12
 Charge:                           0
 Number of electrons:             10
 Number of core electrons:         2
 Spin multiplicity:                1
 
                 Cartesian coordinates [bohr]      Atomic mass [AMU]  Z
   1  N     6.82182577    2.87346447    7.72099687    14.003074       7
   2  H     8.36625160    2.20896759    8.68871146     1.007825       1
   3  H     7.48639849    3.84114800    6.17641118     1.007825       1
   4  H     5.85401804    1.32911599    7.05654762     1.007825       1
   5  N     7.72105127    6.82177201   12.56860613     0.000000       0
   6  H     7.05646455    5.85409719   11.02403942     0.000000       0
   7  H     8.68882825    8.36611725   11.90418158     0.000000       0
   8  H     6.17659278    7.48627216   13.53633668     0.000000       0
   9  N     1.97420664   11.66939530    1.97424640     0.000000       0
  10  H     3.51863349   12.33389380    1.00653002     0.000000       0
  11  H     2.63877653   10.70171325    3.51882825     0.000000       0
  12  H     1.00639751   13.21374520    2.63869260     0.000000       0
 
 This molecule is an asymmetric top.
 
 Point group: C1  
 Computational point group: C1  
 
 Cartesian coordinates in standard orientation [bohr]
   1  N     0.93777333    0.48337791    0.05867964
   2  H     2.58298617   -0.08342812   -0.79880761
   3  H    -0.30446864    0.96947607   -1.34999233
   4  H     1.33752451    2.10034674    1.05304761
   5  N     0.88600559   -5.83266148    0.10363538
   6  H     0.52739065   -3.94291915    0.35666828
   7  H    -0.20239819   -6.42759681   -1.38783492
   8  H     0.24375294   -6.75438874    1.68519956
   9  N   -10.62941341    0.18075923    0.09822887
  10  H   -10.97729148    0.27749720   -1.80779058
  11  H    -8.82892656   -0.50760876    0.31775425
  12  H   -11.84213810   -1.14164168    0.83559891
 
 Nuclear repulsion energy [au]:         11.785794585729
 
 
 Basis set information:
 
 Maximum angular momentum: g
 Maximum number of contracted Gaussians:   11
 Maximum number of primitive Gaussians:    14
 Spherical harmonic GTOs are used.
 
 
 Conventional basis set:
 
   1  N  aug-cc-pvdz [ 10s 5p 2d | 4s 3p 2d ]
   2  H  aug-cc-pvdz [ 5s 2p | 3s 2p ]
   3  H  aug-cc-pvdz [ 5s 2p | 3s 2p ]
   4  H  aug-cc-pvdz [ 5s 2p | 3s 2p ]
   5  N  aug-cc-pvdz [ 10s 5p 2d | 4s 3p 2d ]
   6  H  aug-cc-pvdz [ 5s 2p | 3s 2p ]
   7  H  aug-cc-pvdz [ 5s 2p | 3s 2p ]
   8  H  aug-cc-pvdz [ 5s 2p | 3s 2p ]
   9  N  aug-cc-pvdz [ 10s 5p 2d | 4s 3p 2d ]
  10  H  aug-cc-pvdz [ 5s 2p | 3s 2p ]
  11  H  aug-cc-pvdz [ 5s 2p | 3s 2p ]
  12  H  aug-cc-pvdz [ 5s 2p | 3s 2p ]
 
 Basis functions:
            1             2             3             4             5             6             7             8             9            10
    0    1N1s          1N2s          1N3s          1N4s          1N1pz         1N1py         1N1px         1N2pz         1N2py         1N2px     
    1    1N3pz         1N3py         1N3px         1N1d-2        1N1d-1        1N1d0         1N1d+1        1N1d+2        1N2d-2        1N2d-1    
    2    1N2d0         1N2d+1        1N2d+2        2H1s          2H2s          2H3s          2H1pz         2H1py         2H1px         2H2pz     
    3    2H2py         2H2px         3H1s          3H2s          3H3s          3H1pz         3H1py         3H1px         3H2pz         3H2py     
    4    3H2px         4H1s          4H2s          4H3s          4H1pz         4H1py         4H1px         4H2pz         4H2py         4H2px     
    5    5N1s          5N2s          5N3s          5N4s          5N1pz         5N1py         5N1px         5N2pz         5N2py         5N2px     
    6    5N3pz         5N3py         5N3px         5N1d-2        5N1d-1        5N1d0         5N1d+1        5N1d+2        5N2d-2        5N2d-1    
    7    5N2d0         5N2d+1        5N2d+2        6H1s          6H2s          6H3s          6H1pz         6H1py         6H1px         6H2pz     
    8    6H2py         6H2px         7H1s          7H2s          7H3s          7H1pz         7H1py         7H1px         7H2pz         7H2py     
    9    7H2px         8H1s          8H2s          8H3s          8H1pz         8H1py         8H1px         8H2pz         8H2py         8H2px     
   10    9N1s          9N2s          9N3s          9N4s          9N1pz         9N1py         9N1px         9N2pz         9N2py         9N2px     
   11    9N3pz         9N3py         9N3px         9N1d-2        9N1d-1        9N1d0         9N1d+1        9N1d+2        9N2d-2        9N2d-1    
   12    9N2d0         9N2d+1        9N2d+2       10H1s         10H2s         10H3s         10H1pz        10H1py        10H1px        10H2pz     
   13   10H2py        10H2px        11H1s         11H2s         11H3s         11H1pz        11H1py        11H1px        11H2pz        11H2py     
   14   11H2px        12H1s         12H2s         12H3s         12H1pz        12H1py        12H1px        12H2pz        12H2py        12H2px     
 
 Maximum number of basis functions per shell:   10
 Total number of basis functions:    150
 
 
 Fitting basis set for the SCF calculation:
 
   1  N  aug-cc-pvdz-ri-jk [ 11s 8p 6d 3f | 11s 8p 6d 3f ]
   2  H  aug-cc-pvdz-ri-jk [ 5s 4p 3d | 5s 4p 3d ]
   3  H  aug-cc-pvdz-ri-jk [ 5s 4p 3d | 5s 4p 3d ]
   4  H  aug-cc-pvdz-ri-jk [ 5s 4p 3d | 5s 4p 3d ]
   5  N  aug-cc-pvdz-ri-jk [ 11s 8p 6d 3f | 11s 8p 6d 3f ]
   6  H  aug-cc-pvdz-ri-jk [ 5s 4p 3d | 5s 4p 3d ]
   7  H  aug-cc-pvdz-ri-jk [ 5s 4p 3d | 5s 4p 3d ]
   8  H  aug-cc-pvdz-ri-jk [ 5s 4p 3d | 5s 4p 3d ]
   9  N  aug-cc-pvdz-ri-jk [ 11s 8p 6d 3f | 11s 8p 6d 3f ]
  10  H  aug-cc-pvdz-ri-jk [ 5s 4p 3d | 5s 4p 3d ]
  11  H  aug-cc-pvdz-ri-jk [ 5s 4p 3d | 5s 4p 3d ]
  12  H  aug-cc-pvdz-ri-jk [ 5s 4p 3d | 5s 4p 3d ]
 
 Basis functions:
            1             2             3             4             5             6             7             8             9            10
    0    1N1s          1N2s          1N3s          1N4s          1N5s          1N6s          1N7s          1N8s          1N9s          1N10s     
    1    1N11s         1N1pz         1N1py         1N1px         1N2pz         1N2py         1N2px         1N3pz         1N3py         1N3px     
    2    1N4pz         1N4py         1N4px         1N5pz         1N5py         1N5px         1N6pz         1N6py         1N6px         1N7pz     
    3    1N7py         1N7px         1N8pz         1N8py         1N8px         1N1d-2        1N1d-1        1N1d0         1N1d+1        1N1d+2    
    4    1N2d-2        1N2d-1        1N2d0         1N2d+1        1N2d+2        1N3d-2        1N3d-1        1N3d0         1N3d+1        1N3d+2    
    5    1N4d-2        1N4d-1        1N4d0         1N4d+1        1N4d+2        1N5d-2        1N5d-1        1N5d0         1N5d+1        1N5d+2    
    6    1N6d-2        1N6d-1        1N6d0         1N6d+1        1N6d+2        1N1f-3        1N1f-2        1N1f-1        1N1f0         1N1f+1    
    7    1N1f+2        1N1f+3        1N2f-3        1N2f-2        1N2f-1        1N2f0         1N2f+1        1N2f+2        1N2f+3        1N3f-3    
    8    1N3f-2        1N3f-1        1N3f0         1N3f+1        1N3f+2        1N3f+3        2H1s          2H2s          2H3s          2H4s      
    9    2H5s          2H1pz         2H1py         2H1px         2H2pz         2H2py         2H2px         2H3pz         2H3py         2H3px     
   10    2H4pz         2H4py         2H4px         2H1d-2        2H1d-1        2H1d0         2H1d+1        2H1d+2        2H2d-2        2H2d-1    
   11    2H2d0         2H2d+1        2H2d+2        2H3d-2        2H3d-1        2H3d0         2H3d+1        2H3d+2        3H1s          3H2s      
   12    3H3s          3H4s          3H5s          3H1pz         3H1py         3H1px         3H2pz         3H2py         3H2px         3H3pz     
   13    3H3py         3H3px         3H4pz         3H4py         3H4px         3H1d-2        3H1d-1        3H1d0         3H1d+1        3H1d+2    
   14    3H2d-2        3H2d-1        3H2d0         3H2d+1        3H2d+2        3H3d-2        3H3d-1        3H3d0         3H3d+1        3H3d+2    
   15    4H1s          4H2s          4H3s          4H4s          4H5s          4H1pz         4H1py         4H1px         4H2pz         4H2py     
   16    4H2px         4H3pz         4H3py         4H3px         4H4pz         4H4py         4H4px         4H1d-2        4H1d-1        4H1d0     
   17    4H1d+1        4H1d+2        4H2d-2        4H2d-1        4H2d0         4H2d+1        4H2d+2        4H3d-2        4H3d-1        4H3d0     
   18    4H3d+1        4H3d+2        5N1s          5N2s          5N3s          5N4s          5N5s          5N6s          5N7s          5N8s      
   19    5N9s          5N10s         5N11s         5N1pz         5N1py         5N1px         5N2pz         5N2py         5N2px         5N3pz     
   20    5N3py         5N3px         5N4pz         5N4py         5N4px         5N5pz         5N5py         5N5px         5N6pz         5N6py     
   21    5N6px         5N7pz         5N7py         5N7px         5N8pz         5N8py         5N8px         5N1d-2        5N1d-1        5N1d0     
   22    5N1d+1        5N1d+2        5N2d-2        5N2d-1        5N2d0         5N2d+1        5N2d+2        5N3d-2        5N3d-1        5N3d0     
   23    5N3d+1        5N3d+2        5N4d-2        5N4d-1        5N4d0         5N4d+1        5N4d+2        5N5d-2        5N5d-1        5N5d0     
   24    5N5d+1        5N5d+2        5N6d-2        5N6d-1        5N6d0         5N6d+1        5N6d+2        5N1f-3        5N1f-2        5N1f-1    
   25    5N1f0         5N1f+1        5N1f+2        5N1f+3        5N2f-3        5N2f-2        5N2f-1        5N2f0         5N2f+1        5N2f+2    
   26    5N2f+3        5N3f-3        5N3f-2        5N3f-1        5N3f0         5N3f+1        5N3f+2        5N3f+3        6H1s          6H2s      
   27    6H3s          6H4s          6H5s          6H1pz         6H1py         6H1px         6H2pz         6H2py         6H2px         6H3pz     
   28    6H3py         6H3px         6H4pz         6H4py         6H4px         6H1d-2        6H1d-1        6H1d0         6H1d+1        6H1d+2    
   29    6H2d-2        6H2d-1        6H2d0         6H2d+1        6H2d+2        6H3d-2        6H3d-1        6H3d0         6H3d+1        6H3d+2    
   30    7H1s          7H2s          7H3s          7H4s          7H5s          7H1pz         7H1py         7H1px         7H2pz         7H2py     
   31    7H2px         7H3pz         7H3py         7H3px         7H4pz         7H4py         7H4px         7H1d-2        7H1d-1        7H1d0     
   32    7H1d+1        7H1d+2        7H2d-2        7H2d-1        7H2d0         7H2d+1        7H2d+2        7H3d-2        7H3d-1        7H3d0     
   33    7H3d+1        7H3d+2        8H1s          8H2s          8H3s          8H4s          8H5s          8H1pz         8H1py         8H1px     
   34    8H2pz         8H2py         8H2px         8H3pz         8H3py         8H3px         8H4pz         8H4py         8H4px         8H1d-2    
   35    8H1d-1        8H1d0         8H1d+1        8H1d+2        8H2d-2        8H2d-1        8H2d0         8H2d+1        8H2d+2        8H3d-2    
   36    8H3d-1        8H3d0         8H3d+1        8H3d+2        9N1s          9N2s          9N3s          9N4s          9N5s          9N6s      
   37    9N7s          9N8s          9N9s          9N10s         9N11s         9N1pz         9N1py         9N1px         9N2pz         9N2py     
   38    9N2px         9N3pz         9N3py         9N3px         9N4pz         9N4py         9N4px         9N5pz         9N5py         9N5px     
   39    9N6pz         9N6py         9N6px         9N7pz         9N7py         9N7px         9N8pz         9N8py         9N8px         9N1d-2    
   40    9N1d-1        9N1d0         9N1d+1        9N1d+2        9N2d-2        9N2d-1        9N2d0         9N2d+1        9N2d+2        9N3d-2    
   41    9N3d-1        9N3d0         9N3d+1        9N3d+2        9N4d-2        9N4d-1        9N4d0         9N4d+1        9N4d+2        9N5d-2    
   42    9N5d-1        9N5d0         9N5d+1        9N5d+2        9N6d-2        9N6d-1        9N6d0         9N6d+1        9N6d+2        9N1f-3    
   43    9N1f-2        9N1f-1        9N1f0         9N1f+1        9N1f+2        9N1f+3        9N2f-3        9N2f-2        9N2f-1        9N2f0     
   44    9N2f+1        9N2f+2        9N2f+3        9N3f-3        9N3f-2        9N3f-1        9N3f0         9N3f+1        9N3f+2        9N3f+3    
   45   10H1s         10H2s         10H3s         10H4s         10H5s         10H1pz        10H1py        10H1px        10H2pz        10H2py     
   46   10H2px        10H3pz        10H3py        10H3px        10H4pz        10H4py        10H4px        10H1d-2       10H1d-1       10H1d0     
   47   10H1d+1       10H1d+2       10H2d-2       10H2d-1       10H2d0        10H2d+1       10H2d+2       10H3d-2       10H3d-1       10H3d0     
   48   10H3d+1       10H3d+2       11H1s         11H2s         11H3s         11H4s         11H5s         11H1pz        11H1py        11H1px     
   49   11H2pz        11H2py        11H2px        11H3pz        11H3py        11H3px        11H4pz        11H4py        11H4px        11H1d-2    
   50   11H1d-1       11H1d0        11H1d+1       11H1d+2       11H2d-2       11H2d-1       11H2d0        11H2d+1       11H2d+2       11H3d-2    
   51   11H3d-1       11H3d0        11H3d+1       11H3d+2       12H1s         12H2s         12H3s         12H4s         12H5s         12H1pz     
   52   12H1py        12H1px        12H2pz        12H2py        12H2px        12H3pz        12H3py        12H3px        12H4pz        12H4py     
   53   12H4px        12H1d-2       12H1d-1       12H1d0        12H1d+1       12H1d+2       12H2d-2       12H2d-1       12H2d0        12H2d+1    
   54   12H2d+2       12H3d-2       12H3d-1       12H3d0        12H3d+1       12H3d+2    
 
 Maximum number of basis functions per shell:   30
 Total number of basis functions:    546
 
 
 Fitting basis set for the correlation calculation:
 
   1  N  aug-cc-pvdz-ri [ 8s 6p 5d 3f | 8s 6p 5d 3f ]
   2  H  aug-cc-pvdz-ri [ 4s 3p 2d | 4s 3p 2d ]
   3  H  aug-cc-pvdz-ri [ 4s 3p 2d | 4s 3p 2d ]
   4  H  aug-cc-pvdz-ri [ 4s 3p 2d | 4s 3p 2d ]
   5  N  aug-cc-pvdz-ri [ 8s 6p 5d 3f | 8s 6p 5d 3f ]
   6  H  aug-cc-pvdz-ri [ 4s 3p 2d | 4s 3p 2d ]
   7  H  aug-cc-pvdz-ri [ 4s 3p 2d | 4s 3p 2d ]
   8  H  aug-cc-pvdz-ri [ 4s 3p 2d | 4s 3p 2d ]
   9  N  aug-cc-pvdz-ri [ 8s 6p 5d 3f | 8s 6p 5d 3f ]
  10  H  aug-cc-pvdz-ri [ 4s 3p 2d | 4s 3p 2d ]
  11  H  aug-cc-pvdz-ri [ 4s 3p 2d | 4s 3p 2d ]
  12  H  aug-cc-pvdz-ri [ 4s 3p 2d | 4s 3p 2d ]
 
 Basis functions:
            1             2             3             4             5             6             7             8             9            10
    0    1N1s          1N2s          1N3s          1N4s          1N5s          1N6s          1N7s          1N8s          1N1pz         1N1py     
    1    1N1px         1N2pz         1N2py         1N2px         1N3pz         1N3py         1N3px         1N4pz         1N4py         1N4px     
    2    1N5pz         1N5py         1N5px         1N6pz         1N6py         1N6px         1N1d-2        1N1d-1        1N1d0         1N1d+1    
    3    1N1d+2        1N2d-2        1N2d-1        1N2d0         1N2d+1        1N2d+2        1N3d-2        1N3d-1        1N3d0         1N3d+1    
    4    1N3d+2        1N4d-2        1N4d-1        1N4d0         1N4d+1        1N4d+2        1N5d-2        1N5d-1        1N5d0         1N5d+1    
    5    1N5d+2        1N1f-3        1N1f-2        1N1f-1        1N1f0         1N1f+1        1N1f+2        1N1f+3        1N2f-3        1N2f-2    
    6    1N2f-1        1N2f0         1N2f+1        1N2f+2        1N2f+3        1N3f-3        1N3f-2        1N3f-1        1N3f0         1N3f+1    
    7    1N3f+2        1N3f+3        2H1s          2H2s          2H3s          2H4s          2H1pz         2H1py         2H1px         2H2pz     
    8    2H2py         2H2px         2H3pz         2H3py         2H3px         2H1d-2        2H1d-1        2H1d0         2H1d+1        2H1d+2    
    9    2H2d-2        2H2d-1        2H2d0         2H2d+1        2H2d+2        3H1s          3H2s          3H3s          3H4s          3H1pz     
   10    3H1py         3H1px         3H2pz         3H2py         3H2px         3H3pz         3H3py         3H3px         3H1d-2        3H1d-1    
   11    3H1d0         3H1d+1        3H1d+2        3H2d-2        3H2d-1        3H2d0         3H2d+1        3H2d+2        4H1s          4H2s      
   12    4H3s          4H4s          4H1pz         4H1py         4H1px         4H2pz         4H2py         4H2px         4H3pz         4H3py     
   13    4H3px         4H1d-2        4H1d-1        4H1d0         4H1d+1        4H1d+2        4H2d-2        4H2d-1        4H2d0         4H2d+1    
   14    4H2d+2        5N1s          5N2s          5N3s          5N4s          5N5s          5N6s          5N7s          5N8s          5N1pz     
   15    5N1py         5N1px         5N2pz         5N2py         5N2px         5N3pz         5N3py         5N3px         5N4pz         5N4py     
   16    5N4px         5N5pz         5N5py         5N5px         5N6pz         5N6py         5N6px         5N1d-2        5N1d-1        5N1d0     
   17    5N1d+1        5N1d+2        5N2d-2        5N2d-1        5N2d0         5N2d+1        5N2d+2        5N3d-2        5N3d-1        5N3d0     
   18    5N3d+1        5N3d+2        5N4d-2        5N4d-1        5N4d0         5N4d+1        5N4d+2        5N5d-2        5N5d-1        5N5d0     
   19    5N5d+1        5N5d+2        5N1f-3        5N1f-2        5N1f-1        5N1f0         5N1f+1        5N1f+2        5N1f+3        5N2f-3    
   20    5N2f-2        5N2f-1        5N2f0         5N2f+1        5N2f+2        5N2f+3        5N3f-3        5N3f-2        5N3f-1        5N3f0     
   21    5N3f+1        5N3f+2        5N3f+3        6H1s          6H2s          6H3s          6H4s          6H1pz         6H1py         6H1px     
   22    6H2pz         6H2py         6H2px         6H3pz         6H3py         6H3px         6H1d-2        6H1d-1        6H1d0         6H1d+1    
   23    6H1d+2        6H2d-2        6H2d-1        6H2d0         6H2d+1        6H2d+2        7H1s          7H2s          7H3s          7H4s      
   24    7H1pz         7H1py         7H1px         7H2pz         7H2py         7H2px         7H3pz         7H3py         7H3px         7H1d-2    
   25    7H1d-1        7H1d0         7H1d+1        7H1d+2        7H2d-2        7H2d-1        7H2d0         7H2d+1        7H2d+2        8H1s      
   26    8H2s          8H3s          8H4s          8H1pz         8H1py         8H1px         8H2pz         8H2py         8H2px         8H3pz     
   27    8H3py         8H3px         8H1d-2        8H1d-1        8H1d0         8H1d+1        8H1d+2        8H2d-2        8H2d-1        8H2d0     
   28    8H2d+1        8H2d+2        9N1s          9N2s          9N3s          9N4s          9N5s          9N6s          9N7s          9N8s      
   29    9N1pz         9N1py         9N1px         9N2pz         9N2py         9N2px         9N3pz         9N3py         9N3px         9N4pz     
   30    9N4py         9N4px         9N5pz         9N5py         9N5px         9N6pz         9N6py         9N6px         9N1d-2        9N1d-1    
   31    9N1d0         9N1d+1        9N1d+2        9N2d-2        9N2d-1        9N2d0         9N2d+1        9N2d+2        9N3d-2        9N3d-1    
   32    9N3d0         9N3d+1        9N3d+2        9N4d-2        9N4d-1        9N4d0         9N4d+1        9N4d+2        9N5d-2        9N5d-1    
   33    9N5d0         9N5d+1        9N5d+2        9N1f-3        9N1f-2        9N1f-1        9N1f0         9N1f+1        9N1f+2        9N1f+3    
   34    9N2f-3        9N2f-2        9N2f-1        9N2f0         9N2f+1        9N2f+2        9N2f+3        9N3f-3        9N3f-2        9N3f-1    
   35    9N3f0         9N3f+1        9N3f+2        9N3f+3       10H1s         10H2s         10H3s         10H4s         10H1pz        10H1py     
   36   10H1px        10H2pz        10H2py        10H2px        10H3pz        10H3py        10H3px        10H1d-2       10H1d-1       10H1d0     
   37   10H1d+1       10H1d+2       10H2d-2       10H2d-1       10H2d0        10H2d+1       10H2d+2       11H1s         11H2s         11H3s      
   38   11H4s         11H1pz        11H1py        11H1px        11H2pz        11H2py        11H2px        11H3pz        11H3py        11H3px     
   39   11H1d-2       11H1d-1       11H1d0        11H1d+1       11H1d+2       11H2d-2       11H2d-1       11H2d0        11H2d+1       11H2d+2    
   40   12H1s         12H2s         12H3s         12H4s         12H1pz        12H1py        12H1px        12H2pz        12H2py        12H2px     
   41   12H3pz        12H3py        12H3px        12H1d-2       12H1d-1       12H1d0        12H1d+1       12H1d+2       12H2d-2       12H2d-1    
   42   12H2d0        12H2d+1       12H2d+2    
 
 Maximum number of basis functions per shell:   30
 Total number of basis functions:    423
 
 
 Old basis set for SCF restart
 
   1  N  def2-svp [ 7s 4p 1d | 3s 2p 1d ]
   2  H  def2-svp [ 4s 1p | 2s 1p ]
   3  H  def2-svp [ 4s 1p | 2s 1p ]
   4  H  def2-svp [ 4s 1p | 2s 1p ]
   5  N  def2-svp [ 7s 4p 1d | 3s 2p 1d ]
   6  H  def2-svp [ 4s 1p | 2s 1p ]
   7  H  def2-svp [ 4s 1p | 2s 1p ]
   8  H  def2-svp [ 4s 1p | 2s 1p ]
   9  N  def2-svp [ 7s 4p 1d | 3s 2p 1d ]
  10  H  def2-svp [ 4s 1p | 2s 1p ]
  11  H  def2-svp [ 4s 1p | 2s 1p ]
  12  H  def2-svp [ 4s 1p | 2s 1p ]
 
 Basis functions:
            1             2             3             4             5             6             7             8             9            10
    0    1N1s          1N2s          1N3s          1N1pz         1N1py         1N1px         1N2pz         1N2py         1N2px         1N1d-2    
    1    1N1d-1        1N1d0         1N1d+1        1N1d+2        2H1s          2H2s          2H1pz         2H1py         2H1px         3H1s      
    2    3H2s          3H1pz         3H1py         3H1px         4H1s          4H2s          4H1pz         4H1py         4H1px         5N1s      
    3    5N2s          5N3s          5N1pz         5N1py         5N1px         5N2pz         5N2py         5N2px         5N1d-2        5N1d-1    
    4    5N1d0         5N1d+1        5N1d+2        6H1s          6H2s          6H1pz         6H1py         6H1px         7H1s          7H2s      
    5    7H1pz         7H1py         7H1px         8H1s          8H2s          8H1pz         8H1py         8H1px         9N1s          9N2s      
    6    9N3s          9N1pz         9N1py         9N1px         9N2pz         9N2py         9N2px         9N1d-2        9N1d-1        9N1d0     
    7    9N1d+1        9N1d+2       10H1s         10H2s         10H1pz        10H1py        10H1px        11H1s         11H2s         11H1pz     
    8   11H1py        11H1px        12H1s         12H2s         12H1pz        12H1py        12H1px     
 
 Maximum number of basis functions per shell:   30
 Total number of basis functions:     87
 
 
 Character table for point group C1:
 
          E  
    A     1
 
 Number of basis functions per irrep:
    A     150
 
 
 Calculation of overlap integrals...
 CPU time [min]:     0.185                   Wall time [min]:     0.005
 
 Calculation of the square root of the overlap matrix...
 Minimum eigenvalue of the overlap matrix: 0.121714E-02
 CPU time [min]:     0.207                   Wall time [min]:     0.006
 
 Calculation of kinetic energy integrals...
 CPU time [min]:     0.209                   Wall time [min]:     0.006
 Calculation of dipole moment integrals...
 CPU time [min]:     0.210                   Wall time [min]:     0.006
 Calculation of nuclear attraction integrals...
 CPU time [min]:     0.212                   Wall time [min]:     0.006
 Calculation of overlap integrals...
 CPU time [min]:     0.213                   Wall time [min]:     0.006
 
 Calculation of prescreening integrals...
 CPU time [min]:     0.281                   Wall time [min]:     0.007
 
 Calculation of two-center Coulomb integrals...
   1% done.
  13% done.
  24% done.
  37% done.
  53% done.
  68% done.
  80% done.
  95% done.
 100% done.
 CPU time [min]:     0.293                   Wall time [min]:     0.007
 
 Cholesky decomposition of the two-center matrix...
 Reciprocal of the condition number:  0.181773E-04
 CPU time [min]:     0.309                   Wall time [min]:     0.007
 

 ************************ 2026-02-27 00:01:41 *************************
 Executing scf...

 @scfsetup: integrals calculated directly
            mrcc/integ direct run
 @scfsetup: calculating on full matrices
            not using symmetry adapted basis
 @scfsetup: diis switched on
 @scfsetup: number of steps to extrapolate from  10
 @scfsetup: tolerance in energy deviation    0.100000E-07
            tolerance in density deviation    0.100000E-08
 @scfsetup: maximum number of iterations: 200
 @scfsetup: restricted closed shell hf calc
 @scfsetup: restarting scf from SCFDENSITIES file
 @scfsetup: occupation set:
            from initial orbitals
 @scfsetup: Parameter-set for SCF acceleration: normal
 @scfsetup: diis runs from iteration:   2
 @scfsetup: diis runs to iteration: 200
 @scfsetup: diis runs in every iteration
 @scfsetup: diiswatch is disabled                   
 @scfsetup: diis dtol criteria to switch on:      0.0000E+00
           (or the iteration number below is reached)
 @scfsetup: static damping scheme
            iteration step criteria to turn damping off: 3
 @scfsetup: dynamic level shifting
            tolarance in HOMO-LUMO gap:  0.200
            tolarance in density deviation:     0.0000E+00
            iteration step criteria to turn level shifting off: 8
 Allocation of 46.0 Gbytes of memory...
 ======================================================================
 ITERATION STEP   1
 CPU time [min]:     0.033                   Wall time [min]:     0.010
 

 SCF control                  : initial
 Damping factor/level shift   : 0.000/0.200
 DIIS [start/end/frequency]   :   2 /200 /  1

 Constructing Fock-matrix...
 Inverse square root: The matrix is not positive definite!
 
 Pipek-Mezey localization...
 Step  Convergence
   1   0.817213960040
   2   0.215192003412
   3   0.016157766123
   4   0.000877537285
   5   0.000057557574
   6   0.000005163707
   7   0.000000610129
   8   0.000000082746
   9   0.000000011626
  10   0.000000001660
 CPU time [min]:     0.061                   Wall time [min]:     0.011
 
 Constructing local fitting domains...
 Maximum number of atoms in fitting domains:    9
 Average number of atoms in fitting domains:    9.0
 
 First step of Coulomb + first step of exchange...
 Exchange contribution is evaluated for MOs 1 to 5.
   1% done.
  13% done.
  24% done.
  37% done.
  48% done.
  67% done.
  78% done.
  92% done.
 100% done.
 Fitting and assembly step of exchange...
 CPU time [min]:     0.172                   Wall time [min]:     0.012
 
 Second step of Coulomb...
   1% done.
  13% done.
  24% done.
  37% done.
  48% done.
  67% done.
  78% done.
  92% done.
 100% done.
 CPU time [min]:     0.201                   Wall time [min]:     0.013
 
 Gradient norm:      8.8830E-02
 RMS of [F,P]:                                         0.00183876621674
 RMS of difference density:                            0.00523486403425
 Gap [au]:  0.45121355
 ALPHA OCC:   5
 BETA  OCC:   5
 
 ***HARTREE-FOCK ENERGY IN STEP   1 IS        -56.1946059396010185 [AU]
 ======================================================================
 ITERATION STEP   2
 CPU time [min]:     0.224                   Wall time [min]:     0.013
 

 SCF control                  : diis
 Damping factor/level shift   : 0.000/0.000
 DIIS [start/end/frequency]   :   2 /200 /  1

 Constructing Fock-matrix...
 
 Pipek-Mezey localization...
 Step  Convergence
   1   0.010185619467
   2   0.009984592401
   3   0.000072594945
   4   0.000002984251
   5   0.000000250949
   6   0.000000028347
   7   0.000000003666
 CPU time [min]:     0.250                   Wall time [min]:     0.014
 
 Constructing local fitting domains...
 Maximum number of atoms in fitting domains:    9
 Average number of atoms in fitting domains:    9.0
 
 First step of Coulomb + first step of exchange...
 Exchange contribution is evaluated for MOs 1 to 5.
   1% done.
  13% done.
  24% done.
  37% done.
  48% done.
  67% done.
  78% done.
  92% done.
 100% done.
 Fitting and assembly step of exchange...
 CPU time [min]:     0.347                   Wall time [min]:     0.015
 
 Second step of Coulomb...
   1% done.
  13% done.
  24% done.
  37% done.
  48% done.
  67% done.
  78% done.
  92% done.
 100% done.
 CPU time [min]:     0.377                   Wall time [min]:     0.016
 
 Gradient norm:      2.4935E-02
 DIIS is running in this iteration step.
 RMS of [F,P]:                                         0.00031330833215
 RMS of difference density:                            0.00082272486037
 Gap [au]:  0.45322450
 ALPHA OCC:   5
 BETA  OCC:   5
 
 ***HARTREE-FOCK ENERGY IN STEP   2 IS        -56.2038725221215785 [AU]
 
 Step comparison  Energy Drift [au]  DIIS error drift  Gradient drift
        1            9.2666E-03         1.5255E-03       6.3895E-02
        2            5.6204E+01         1.0000E-09       6.3895E-02
 ======================================================================
 ITERATION STEP   3
 CPU time [min]:     0.397                   Wall time [min]:     0.016
 

 SCF control                  : diis
 Damping factor/level shift   : 0.000/0.000
 DIIS [start/end/frequency]   :   2 /200 /  1

 Constructing Fock-matrix...
 
 Pipek-Mezey localization...
 Step  Convergence
   1   0.019948311587
   2   0.018674114930
   3   0.000110348093
   4   0.000004124061
   5   0.000000234552
   6   0.000000019834
   7   0.000000002268
 CPU time [min]:     0.423                   Wall time [min]:     0.017
 
 Constructing local fitting domains...
 Local fitting domains are unchanged.
 
 First step of Coulomb + first step of exchange...
 Exchange contribution is evaluated for MOs 1 to 5.
   1% done.
  13% done.
  24% done.
  37% done.
  48% done.
  67% done.
  78% done.
  92% done.
 100% done.
 Fitting and assembly step of exchange...
 CPU time [min]:     0.518                   Wall time [min]:     0.018
 
 Second step of Coulomb...
   1% done.
  13% done.
  24% done.
  37% done.
  48% done.
  67% done.
  78% done.
  92% done.
 100% done.
 CPU time [min]:     0.547                   Wall time [min]:     0.019
 
 Gradient norm:      8.3795E-03
 DIIS is running in this iteration step.
 RMS of [F,P]:                                         0.00010513841768
 RMS of difference density:                            0.00029001122724
 Gap [au]:  0.45442631
 ALPHA OCC:   5
 BETA  OCC:   5
 
 ***HARTREE-FOCK ENERGY IN STEP   3 IS        -56.2045642307550750 [AU]
 
 Step comparison  Energy Drift [au]  DIIS error drift  Gradient drift
        2            6.9171E-04         2.0817E-04       1.6556E-02
 ======================================================================
 ITERATION STEP   4
 CPU time [min]:     0.568                   Wall time [min]:     0.019
 

 SCF control                  : diis
 Damping factor/level shift   : 0.000/0.000
 DIIS [start/end/frequency]   :   2 /200 /  1

 Constructing Fock-matrix...
 
 Pipek-Mezey localization...
 Step  Convergence
   1   0.019967075226
   2   0.017504389529
   3   0.000126888536
   4   0.000005677934
   5   0.000000312229
   6   0.000000024631
   7   0.000000002700
 CPU time [min]:     0.594                   Wall time [min]:     0.019
 
 Constructing local fitting domains...
 Local fitting domains are unchanged.
 
 First step of Coulomb + first step of exchange...
 Exchange contribution is evaluated for MOs 1 to 5.
   1% done.
  13% done.
  24% done.
  37% done.
  48% done.
  67% done.
  78% done.
  92% done.
 100% done.
 Fitting and assembly step of exchange...
 CPU time [min]:     0.689                   Wall time [min]:     0.021
 
 Second step of Coulomb...
   1% done.
  13% done.
  24% done.
  37% done.
  48% done.
  67% done.
  78% done.
  92% done.
 100% done.
 CPU time [min]:     0.718                   Wall time [min]:     0.021
 
 Gradient norm:      2.6167E-03
 DIIS is running in this iteration step.
 RMS of [F,P]:                                         0.00002988866821
 RMS of difference density:                            0.00005231510032
 Gap [au]:  0.45293572
 ALPHA OCC:   5
 BETA  OCC:   5
 
[...]
   88    2     0.999826        1    7
   89    1     0.999998        7
   90    1     0.999981        7
   91    1     1.000000        7
   92    1     0.999568        7
   93    1     0.995781        7
   94    1     0.999793        7
   95    1     0.999603        8
   96    1     0.998880        8
   97    1     0.982034        8
   98    1     0.999999        8
   99    1     0.999983        8
  100    1     1.000000        8
  101    1     0.999855        8
  102    1     0.996462        8
  103    1     0.999944        8
  104    1     1.000000        9
  105    1     1.000000        9
  106    1     1.000000        9
  107    1     0.999986        9
  108    1     1.000000        9
  109    1     1.000000        9
  110    1     1.000000        9
  111    1     1.000000        9
  112    1     1.000000        9
  113    1     1.000000        9
  114    1     0.999995        9
  115    1     0.999997        9
  116    1     0.999723        9
  117    1     1.000000        9
  118    1     1.000000        9
  119    1     1.000000        9
  120    1     1.000000        9
  121    1     1.000000        9
  122    1     1.000000        9
  123    1     1.000000        9
  124    1     1.000000        9
  125    1     1.000000        9
  126    1     1.000000        9
  127    1     1.000000       10
  128    1     1.000000       10
  129    1     0.999702       10
  130    1     1.000000       10
  131    1     1.000000       10
  132    1     1.000000       10
  133    1     1.000000       10
  134    1     1.000000       10
  135    1     1.000000       10
  136    1     0.999996       11
  137    1     0.999988       11
  138    1     0.997292       11
  139    1     1.000000       11
  140    1     1.000000       11
  141    1     1.000000       11
  142    1     0.999999       11
  143    1     0.999999       11
  144    1     0.999958       11
  145    1     1.000000       12
  146    1     1.000000       12
  147    1     0.999889       12
  148    1     1.000000       12
  149    1     1.000000       12
  150    1     1.000000       12
  151    1     1.000000       12
  152    1     1.000000       12
  153    1     1.000000       12
 CPU time [min]:     0.024                   Wall time [min]:     0.003
 
 C1 point group was detected
 
 Constructing orbital domains...
 CPU time [min]:     0.033                   Wall time [min]:     0.003
 
 Dimensions of the primary domains:     Minimum / Average / Maximum
 
 Number of atoms in domain:                   4       4.2         5
 Number of atoms in occ BP domain:            3       3.5         4
 Number of atoms in PAO BP domain:            1       1.3         4
 Number of atomic orbitals:                  50      52.2        59
 Number of PAOs:                             40      42.5        45
 
 Prescreening pairs...
 CPU time [min]:     0.054                   Wall time [min]:     0.004
 
 Occupied LMO domain definition with Boughton-Pulay completeness:    0.9999500000
 
   MO  Natoms  Completeness   Atoms
    1    7     0.999994        1    2    3    4    5    6    8
    2    7     0.999992        1    2    3    4    6    7    8
    3    5     0.999985        1    2    3    4    6
    4    7     0.999976        1    2    3    4    5    7    8
 
 Executing the Boughton-Pulay algorithm...
  with occ MO completeness:    0.9850000000
 
   MO  Natoms  Completeness   Atoms
    1    1     0.998493        1
    2    2     0.999089        1    4
    3    2     0.999072        1    3
    4    2     0.999078        1    2
 CPU time [min]:     0.065                   Wall time [min]:     0.004
 
 Dimensions of the occupied LMO domains:  Minimum / Average / Maximum
 
 Number of atoms in domain:                   5       6.5         7
 Number of atomic orbitals:                  59      79.5        91
 
 Total number of pairs:   6
 Number of distant pairs: 0 (0.0%)
 Sum of multipole based pair energies:      0.0000000000
 
 CPU time [min]:     0.068                   Wall time [min]:     0.004
 Number of strong pairs: 6 (100.0%)
 chtol from minp:   1.000000000000000E-006
        1.93 MB memory is used for domain independent quantities
 
 Calculating the contribution of occupied LMOs...
    using local fitting domains
 
 MO:     1
 Number of atoms in domain:      12
    Number of atoms in PCD:      12
 Number of atomic orbitals:     150
 Number of atoms for local DF:   12
 Number of fitting functions:   423 (100.00%)
 Number of occupied orbitals:     4
 Number of virtual  orbitals:   145
 Number of Cholesky vectors:      9
 MP2 energy in ED [au]:          -0.050722555847
 Number of occupied LNOs:         4 (100.00%)
 Number of virtual  LNOs:        42  (28.97%)
 Number of Cholesky vectors:      7
 MP2 energy in LIS [au]:         -0.050712495248
 Correction for frozen LNO [au]: -0.000010060599     (0.020%)
 Number of NAFs:                116  (27.42%)
 CPU time [min]:     0.832                   Wall time [min]:     0.017
 

 Direct DF-CCSD(T) calculation
 
 Convergence criterion:  1.0E-05
 
 Number of occupied/virtual/auxiliary orbitals:     4    42   116
     10.15 MB is the minimal memory requirement for (T)
      6.26 MB is the minimal memory requirement for CCSD
 
 MP2 correlation energy [au]:       -0.200428641412
 
 LMP2 domain correlation energy contribution [au]:       -0.050710290518
 
 CPU time [min]:     0.885                   Wall time [min]:     0.018
 
 
 Starting CCSD iterations...
 
                     Residual norm       Correlation Energy
 Iteration  1        0.119168135920       -0.209955348777
 Iteration  2        0.032979958519       -0.214748943244
 Iteration  3        0.009863216603       -0.215686343907
 Iteration  4        0.002552940807       -0.215664802974
 Iteration  5        0.000710900595       -0.215680508986
 Iteration  6        0.000207874736       -0.215680318448
 Iteration  7        0.000057667217       -0.215679036303
 
 CCSD iteration has converged in  7 steps.
       18.75 MB memory was utilized by CCSD
 
 T1 diagnostic:      9.726E-03            D1 diagnostic:      2.322E-02
 
 T1 contribution [au]:                         0.000000000000
 CCSD correlation energy [au]:                -0.053942797861
 
 CPU time [min]:     1.005                   Wall time [min]:     0.020
 
 Calculation of (T) correction...
 
 Laplace threshold, nquadmin:  1.00E-03   4
 Number of quadrature points:    4
 
       10.26 MB memory is utilized for (T)

 0%       25%       50%       75%       100%
 |---------|---------|---------|---------| 
 
 (T) correction [au]:                   -0.001533576854
 CCSD(T) correlation energy [au]:       -0.055476374715
 
 CPU time [min]:     1.053                   Wall time [min]:     0.021
 
 MO:     2
 Number of atoms in domain:      12
    Number of atoms in PCD:      12
 Number of atomic orbitals:     150
 Number of atoms for local DF:   12
 Number of fitting functions:   423 (100.00%)
 Number of occupied orbitals:     4
 Number of virtual  orbitals:   145
 Number of Cholesky vectors:      9
 MP2 energy in ED [au]:          -0.050042833545
 Number of occupied LNOs:         4 (100.00%)
 Number of virtual  LNOs:        40  (27.59%)
 Number of Cholesky vectors:      7
 MP2 energy in LIS [au]:         -0.050035026917
 Correction for frozen LNO [au]: -0.000007806628     (0.016%)
 Number of NAFs:                111  (26.24%)
 CPU time [min]:     1.659                   Wall time [min]:     0.032
 

 Direct DF-CCSD(T) calculation
 
 Convergence criterion:  1.0E-05
 
 Number of occupied/virtual/auxiliary orbitals:     4    40   111
      9.12 MB is the minimal memory requirement for (T)
      5.79 MB is the minimal memory requirement for CCSD
 
 MP2 correlation energy [au]:       -0.200439464192
 
 LMP2 domain correlation energy contribution [au]:       -0.050028868333
 
 CPU time [min]:     1.710                   Wall time [min]:     0.032
 
 
 Starting CCSD iterations...
 
                     Residual norm       Correlation Energy
 Iteration  1        0.119107444137       -0.209969743012
 Iteration  2        0.032909899480       -0.214802008104
 Iteration  3        0.009548707621       -0.215682722368
 Iteration  4        0.002437305252       -0.215662634325
 Iteration  5        0.000648667901       -0.215680911745
 Iteration  6        0.000186962706       -0.215680077239
 Iteration  7        0.000048226799       -0.215679402105
 
 CCSD iteration has converged in  7 steps.
       16.10 MB memory was utilized by CCSD
 
 T1 diagnostic:      9.522E-03            D1 diagnostic:      2.256E-02
 
 T1 contribution [au]:                         0.000000000000
 CCSD correlation energy [au]:                -0.054023776306
 
 CPU time [min]:     1.821                   Wall time [min]:     0.034
 
 Calculation of (T) correction...
 
 Laplace threshold, nquadmin:  1.00E-03   4
 Number of quadrature points:    4
 
        9.22 MB memory is utilized for (T)

 0%       25%       50%       75%       100%
 |---------|---------|---------|---------| 
 
 (T) correction [au]:                   -0.001364121083
 CCSD(T) correlation energy [au]:       -0.055387897390
 
 CPU time [min]:     1.869                   Wall time [min]:     0.035
 
 MO:     3
 Number of atoms in domain:      12
    Number of atoms in PCD:      12
 Number of atomic orbitals:     150
 Number of atoms for local DF:   12
 Number of fitting functions:   423 (100.00%)
 Number of occupied orbitals:     4
 Number of virtual  orbitals:   145
 Number of Cholesky vectors:      9
 MP2 energy in ED [au]:          -0.050040061907
 Number of occupied LNOs:         4 (100.00%)
 Number of virtual  LNOs:        39  (26.90%)
 Number of Cholesky vectors:      7
 MP2 energy in LIS [au]:         -0.050030561499
 Correction for frozen LNO [au]: -0.000009500408     (0.019%)
 Number of NAFs:                110  (26.00%)
 CPU time [min]:     2.492                   Wall time [min]:     0.045
 

 Direct DF-CCSD(T) calculation
 
 Convergence criterion:  1.0E-05
 
 Number of occupied/virtual/auxiliary orbitals:     4    39   110
      8.66 MB is the minimal memory requirement for (T)
      5.60 MB is the minimal memory requirement for CCSD
 
 MP2 correlation energy [au]:       -0.200357151373
 
 LMP2 domain correlation energy contribution [au]:       -0.050024692976
 
 CPU time [min]:     2.543                   Wall time [min]:     0.046
 
 
 Starting CCSD iterations...
 
                     Residual norm       Correlation Energy
 Iteration  1        0.119050052507       -0.209894028487
 Iteration  2        0.032887409664       -0.214725236510
 Iteration  3        0.009494235411       -0.215599348221
 Iteration  4        0.002438295258       -0.215580265916
 Iteration  5        0.000654531720       -0.215598797073
 Iteration  6        0.000193028082       -0.215597727319
 Iteration  7        0.000050230412       -0.215596978220
 
 CCSD iteration has converged in  7 steps.
       14.93 MB memory was utilized by CCSD
 
 T1 diagnostic:      9.494E-03            D1 diagnostic:      2.249E-02
 
 T1 contribution [au]:                         0.000000000000
 CCSD correlation energy [au]:                -0.054017237365
 
 CPU time [min]:     2.655                   Wall time [min]:     0.048
 
 Calculation of (T) correction...
 
 Laplace threshold, nquadmin:  1.00E-03   4
 Number of quadrature points:    4
 
        8.76 MB memory is utilized for (T)

 0%       25%       50%       75%       100%
 |---------|---------|---------|---------| 
 
 (T) correction [au]:                   -0.001362233156
 CCSD(T) correlation energy [au]:       -0.055379470521
 
 CPU time [min]:     2.697                   Wall time [min]:     0.049
 
 MO:     4
 Number of atoms in domain:      12
    Number of atoms in PCD:      12
 Number of atomic orbitals:     150
 Number of atoms for local DF:   12
 Number of fitting functions:   423 (100.00%)
 Number of occupied orbitals:     4
 Number of virtual  orbitals:   145
 Number of Cholesky vectors:      9
 MP2 energy in ED [au]:          -0.050033805882
 Number of occupied LNOs:         4 (100.00%)
 Number of virtual  LNOs:        39  (26.90%)
 Number of Cholesky vectors:      7
 MP2 energy in LIS [au]:         -0.050025940550
 Correction for frozen LNO [au]: -0.000007865331     (0.016%)
 Number of NAFs:                109  (25.77%)
 CPU time [min]:     3.292                   Wall time [min]:     0.059
 

 Direct DF-CCSD(T) calculation
 
 Convergence criterion:  1.0E-05
 
 Number of occupied/virtual/auxiliary orbitals:     4    39   109
      8.64 MB is the minimal memory requirement for (T)
      5.58 MB is the minimal memory requirement for CCSD
 
 MP2 correlation energy [au]:       -0.200382841407
 
 LMP2 domain correlation energy contribution [au]:       -0.050017299329
 
 CPU time [min]:     3.343                   Wall time [min]:     0.060
 
 
 Starting CCSD iterations...
 
                     Residual norm       Correlation Energy
 Iteration  1        0.119057187470       -0.209911744840
 Iteration  2        0.032847935378       -0.214773050114
 Iteration  3        0.009320717534       -0.215603628292
 Iteration  4        0.002348789466       -0.215591311221
 Iteration  5        0.000605156051       -0.215609630728
 Iteration  6        0.000169699980       -0.215609213622
 Iteration  7        0.000042854891       -0.215608874687
 
 CCSD iteration has converged in  7 steps.
       14.91 MB memory was utilized by CCSD
 
 T1 diagnostic:      9.267E-03            D1 diagnostic:      2.172E-02
 
 T1 contribution [au]:                         0.000000000000
 CCSD correlation energy [au]:                -0.054010044461
 
 CPU time [min]:     3.455                   Wall time [min]:     0.062
 
 Calculation of (T) correction...
 
 Laplace threshold, nquadmin:  1.00E-03   4
 Number of quadrature points:    4
 
        8.74 MB memory is utilized for (T)

 0%       25%       50%       75%       100%
 |---------|---------|---------|---------| 
 
 (T) correction [au]:                   -0.001363568459
 CCSD(T) correlation energy [au]:       -0.055373612921
 
 CPU time [min]:     3.500                   Wall time [min]:     0.063
 
 **********************************************************************
 Dimensions of the extended domains:    Minimum / Average / Maximum
 
 Number of atoms in domain:                  12      12.0        12
 Number of atomic orbitals:                 150     150.0       150
 Number of fitting functions:               423     423.0       423
 Number of occupied localized MOs:            4       4.0         4
 Number of PAOs:                            145     145.0       145
 Number of occupied LNOs:                     4       4.0         4
 Number of virtual  LNOs:                    39      40.0        42
 Number of NAFs:                            109     111.5       116
 
 **********************************************************************
 Distant (and weak) pair contributions, corrections
 
 Sum of pair energies [au]:                     0.000000000000    (0.000%)
 Sum of energy corrections [au]:               -0.000035232966    (0.018%)
 Pair energies + LNO corrections [au]:         -0.000035232966
 Sum of LMP2 contributions [au]:               -0.200839257181
 
 **********************************************************************
  Time of manipulations in the EDs:      max CPU/Wall [s]  all CPU/Wall [min]
 
 PD construction & multipole pair E       3.96     0.09     0.07     0.00
 Construct MO basis of the ED             1.31     0.02     0.07     0.00
 (mu,nu|P) evaluation & trf 2 (ai|P)      4.89     0.08     0.28     0.00
 Evaluate MP2 energy of the ED            0.23     0.00     0.01     0.00
 Transformations to the LNO basis         0.84     0.01     0.05     0.00
 Build W_PQ (Jai or Jpi part)             0.67     0.02     0.02     0.00
 Evaluate MP2 energy of the LIS           0.14     0.00     0.01     0.00
 (mu,nu|P) evaluation & trf 2 J(abQ)     28.52     0.53     1.61     0.03
 Total of the above for all EDs          36.60     0.66     2.05     0.04
 
 **********************************************************************
 Maximum memory requirement [MB]:       
 
 PD construction & multipole pair E          2.6
 AO integral evaluation in the EDs         315.2
 (mu,nu|P) evaluation & trf 2 (aI|P)       333.1
 Evaluate MP2 energy in the EDs             13.9
 Transformation to the LNO basis             6.2
 (mu,nu|P) to Jab transformation           320.0
 Evaluate MP2 energy in the LIS              8.9
 Minimum requirement for LIS CCSD            6.3
 Actually allocated  for LIS CCSD           18.7
 Minimum requirement for LIS (T)            10.2
 Actually allocated  for LIS (T)            10.3
 
 ======================================================================
 ======================================================================
 
 
 
 ======================================================================
 ======================================================================
 
 Final local CC results:
 
 Minimum number of correlated electrons:         8       (100.0%)
 Maximum number of correlated electrons:         8       (100.0%)
 Average number of correlated electrons:         8.0     (100.0%)
 Minimum number of correlated orbitals:         43       ( 28.9%)
 Maximum number of correlated orbitals:         46       ( 30.9%)
 Average number of correlated orbitals:         44.0     ( 29.5%)
 
 CPU time for integral calculations [min]:                  0.317
 Wall time for integral calculations [min]:                 0.007
 
 CPU time for SCF calculation [min]:                        2.464
 Wall time for SCF calculation [min]:                       0.062
 
 CPU time for orbital localization [min]:                   0.003
 Wall time for orbital localization [min]:                  0.016
 
 CPU time for integral transformations [min]:               2.715
 Wall time for integral transformations [min]:              0.050
 
 Reference energy [au]:                                   -56.204675893104
 
 LMP2 correlation energy [au]:                             -0.200839257181
 Total LMP2 energy [au]:                                  -56.405515150285
 
 Total MP2 correction for dropped NAFs [au]:               -0.000022873059
 Total MP2 correction [au]:                                -0.000058106024
 
 CPU time for CCSD calculations [min]:                      0.625
 Total CPU time for CCSD [min]:                             6.124
 Wall time for CCSD calculations [min]:                     0.010
 Total wall time for CCSD [min]:                            0.146
 
 CCSD correlation energy [au]:                             -0.215993855994
 Total CCSD energy [au]:                                  -56.420669749098
 CCSD correlation energy + 0.5 MP2 corrections [au]:       -0.216022909006
 Total LNO-CCSD energy with MP2 corrections [au]:         -56.420698802111
 
 CPU time for (T) corrections [min]:                        0.183
 Total CPU time for CCSD(T) [min]:                          6.308
 Wall time for (T) corrections [min]:                       0.003
 Total wall time for CCSD(T) [min]:                         0.149
 
 Total (T) correlation energy contribution [au]:           -0.005623499552
 Total (T) correlation energy+0.5 MP2 correction [au]:     -0.005652552564
 CCSD(T) correlation energy [au]:                          -0.221617355546
 Total CCSD(T) energy [au]:                               -56.426293248651
 CCSD(T) correlation energy + MP2 corrections [au]:        -0.221675461571
 Total LNO-CCSD(T) energy with MP2 corrections [au]:      -56.426351354675
 
 ======================================================================
 ======================================================================
 
 ************************ 2026-02-27 00:01:50 *************************
                      Normal termination of mrcc.
 **********************************************************************
