 **********************************************************************
                          MRCC program system
 **********************************************************************
 
                              Written by
     Mihaly Kallay, Peter R. Nagy, David Mester, Laszlo Gyevi-Nagy,
        Jozsef Csoka, P. Bernat Szabo, Zoltan Rolik, Gyula Samu,
     Jozsef Csontos, Bence Hegely, Adam Ganyecz, Istvan Ladjanszki,
       Lorant Szegedy, Bence Ladoczki, Klara Petrov, Mate Farkas,
                    Pal D. Mezei, and Reka A. Horvath
 
        Department of Physical Chemistry and Materials Science
            Budapest University of Technology and Economics
                  Budapest P.O.Box 91, H-1521 Hungary
 
                              www.mrcc.hu
 
                     Release date: August 28, 2023

 ************************ 2026-02-26 23:17:01 *************************
 Executing minp...

 Reading input from MINP...
 
 Input file:
 
charge=0
mult=1
calc=DF-MP2
basis=aug-cc-pVDZ
symm=off
verbosity=3
unit=angs
scfalg=locfit1
scfmaxit=200
scftol=8
basis_sm=def2-SVP
scfiguess=small
mem=46GB
ghost=serialno
1-4,9-12

geom=xyz
12

N      3.60995473454    1.52057191074    4.08577558721
H      4.42722968319    1.16893531034    4.59786809656
H      3.96163147006    2.03264798552    3.26841604077
H      3.09781293566    0.70333789254    3.73416418411
N      4.08580437245    3.60992628524    6.65101993408
H      3.73412022664    3.09785482065    5.83367042895
H      4.59792989480    4.42715858900    6.29942160276
H      3.26851213636    3.96156461954    7.16312088514
N      4.08580437245    8.74042628524    6.65101993408
H      3.73412022664    8.22835482065    5.83367042895
H      4.59792989480    9.55765858900    6.29942160276
H      3.26851213636    9.09206461954    7.16312088514
 
 
 Checking keyword combinations...
 
 Keywords:
 
 active=none
 agrid=ld0006-ld0590
 agrid_pssp=ld0006-ld0194
 agrid_pssp_sm=ld0006-ld0074
 basis=aug-cc-pvdz
 basis_sm=def2-svp
 basopt=off
 bfbasis=none
 bfgsmem=10
 bfgstol=1.0d-3
 boysalg=jacobi
 bpcompo=0.985
 bpcompv=0.98
 bpdfo=0.985
 bpocc=0.985
 bppdo=0.985
 bppdv=0.98
 bpedo=0.985
 bpedv=0.98
 calc=mp2
 ccmaxit=50
 ccprog=mrcc
 ccsdalg=disk
 ccsdmkl=seq
 ccsdrest=off
 ccsdthreads=2
 cctol=6
 charge=0
 cialg=disk
 ciguess=off
 cmpgrp=auto
 comprest=off
 coord_sys=ric
 core=frozen
 corembed=off
 csapprox=off
 cvs=off
 dboc=off
 delocsomofact=
 dendec=cholesky
 dens=0
 denscorr=0
 dfalg=lineq
 dfbasis_cab=none
 dfbasis_cor=auto
 dfbasis_scf=auto
 dfbasis_scf_sm=auto
 dfintran=drpa
 dft=off
 dhexc=adc(2)
 diag=david
 docc=
 domrad=10.d0
 drpaalg=fit
 dual=off
 dual_df=off
 ecp=auto
 edisp=off
 edisp_embed=off
 embed=off
 epairestfact=off
 epairscale=1.d0
 etemp=300
 epert=none
 eps=
 espcharge=off
 excrad=1.0
 excrad_fin=0.100000000D-02
 fitting=coulomb
 fmm=off
 fmmord=8
 fnonorb=
 freq=off
 gamma=1.d0
 gauss=spher
 geom=xyz
 gopt=off
 ghost=serialno
 gtol=7
 grdens=off
 grid=auto
 grid_sm=auto
 gridbatch_cos=2000
 grtol=10
 guido_ct=off
 hamilton=dc
 iface=none
 intalg=auto
 ip_ea=off
 itol=12
 laptol=1.d-2
 lccoporder=trffirst
 lcorthr=normal
 lccrest=off
 ldfgrad_tol=8
 lmp2dens=on
 lnoepso=0.d0
 lnoepsv=1e-6
 localcc=off
 localcorrsymm=off
 locintrf=disk
 mact=
 maxact=off
 maxdim=200
 maxex=0
 maxmicroit=100
 mcscfiguess=hf
 mem=46gb
 mmprog=
 molden=on
 mpitasks=1
 mulmet=0
 mult=1
 nab=off
 nacto=0
 nactv=0
 naf_amp=3.16d-3
 naf_cor=off
 naf_f12=off
 naf_scf=off
 nafalg=albe
 nafdens=off
 naftyp=
 nchol=auto
 ndeps=1e-3
 nstate=1
 nsing=0
 nto=off
 ntrip=0
 num_grad=off
 occ=
 occri=off
 oniom=off
 oniom_eechg=off
 oniom_pcm=off
 oniom_qcorr=off
 optalg=
 optmaxit=50
 optetol=1e-6
 optex=0
 optgtol=1e-4
 optstol=1e-3
 orblocc=off
 orbloce=off
 orbloco=off
 orblocv=off
 orblocguess=cholesky
 osveps=1e-3
 ovirt=off
 ovltol=1e-7
 ovosnorb=80.0
 pao_subsys_tol=1e-3
 pcm=off
 popul=off
 pressure=100000
 pssp=off
 ptfreq=0.0
 ptthreads=2
 qmreg=
 qmmm=off
 qro=off
 qscf=off
 redcost_exc=off
 redcost_tddft=off
 refdet=none
 rest=0
 rgrid=log3
 rism=off
 rohfcore=semicanonical
 rohftype=semicanonical
 scfalg=locfit1
 scf_conv=auto
 scfdamp=0.0d0
 scfdamp_mode=off
 scfdamp_end=200
 scfdamp_dampstep=0.d0
 scfdamp_dtol=0.0d0
 scfdamp_maxfact=0.0d0
 scfdamp_minfact=0.0d0
 scfdiis=on
 scfdiis_dtol=0.0d0
 scfdiis_end=200
 scfdiis_start=2
 scfdiis_step=1
 scfdiis_watch=off
 scfdiis_wrange=10
 scfdiis_wlimit=5
 scfdiis_delmax=2
 scfdtol=9
 scfext=10
 scfguessdens=
 scfiguess=small
 scfloc=pm
 scflshift=0.20
 scflshift_end=8
 scflshift_dtol=0.0
 scflshift_gaptol=0.20
 scfmaxit=200
 scftype=
 scftol=8
 scspe=1.d0
 scsph=1.d0
 scsps=1.2d0
 scsps_t=1.2d0
 scspt=0.33333333333333
 scspt_t=0.33333333333333
 scspv=1.d0
 spairtol=1e-4
 sqmprog=
 subminp=top
 symm=0
 talg=occ
 temp=298.15
 test=off
 theodore=off
 tlmo=0.999
 tpao=0.94
 tprint=off
 uncontract=off
 unit=angs
 usedisk=2
 verbosity=3
 wpairtol=0.100000000E-05
 
 Calculating integrals for small-basis SCF...

 ************************ 2026-02-26 23:17:01 *************************
 Executing integ...

 Allocation of 46.0 Gbytes of memory...
 
 
 Number of atoms:                 12
 Charge:                           0
 Number of electrons:             10
 Number of core electrons:         2
 Spin multiplicity:                1
 
                 Cartesian coordinates [bohr]      Atomic mass [AMU]  Z
   1  N     6.82182577    2.87346447    7.72099687     0.000000       0
   2  H     8.36625160    2.20896759    8.68871146     0.000000       0
   3  H     7.48639849    3.84114800    6.17641118     0.000000       0
   4  H     5.85401804    1.32911599    7.05654762     0.000000       0
   5  N     7.72105127    6.82177201   12.56860613    14.003074       7
   6  H     7.05646455    5.85409719   11.02403942     1.007825       1
   7  H     8.68882825    8.36611725   11.90418158     1.007825       1
   8  H     6.17659278    7.48627216   13.53633668     1.007825       1
   9  N     7.72105127   16.51701190   12.56860613     0.000000       0
  10  H     7.05646455   15.54933707   11.02403942     0.000000       0
  11  H     8.68882825   18.06135713   11.90418158     0.000000       0
  12  H     6.17659278   17.18151205   13.53633668     0.000000       0
 
 This molecule is an asymmetric top.
 
 Point group: C1  
 Computational point group: C1  
 
 Cartesian coordinates in standard orientation [bohr]
   1  N    -5.43610543   -3.19750008    0.22693301
   2  H    -5.78247369   -1.95293584   -1.22026000
   3  H    -4.84130148   -4.85988698   -0.57711383
   4  H    -7.13437691   -3.55570609    1.09337358
   5  N    -0.40315807    0.60547308   -0.09538760
   6  H    -1.74117591   -0.71340139    0.38838385
   7  H     0.97539412   -0.31878345   -1.09957791
   8  H     0.40886235    1.22875095    1.55250876
   9  N     8.99840105   -1.75660166    0.07480467
  10  H     7.66038322   -3.07547612    0.55857612
  11  H    10.37695325   -2.68085819   -0.92938564
  12  H     9.81042147   -1.13332379    1.72270104
 
 Nuclear repulsion energy [au]:         11.785807877699
 
Warning: for H atoms in the case of dfbasis_scf=auto the AO basis is set as dfbasis_scf instead of def2-qzvp(pd)-ri-jk because the AO basis is larger. Set the dfbasis_scf=def2-qzvp(pd)-ri-jk in MINP if that is desired.
 
 
 Basis set information:
 
 Maximum angular momentum: g
 Maximum number of contracted Gaussians:   10
 Maximum number of primitive Gaussians:    14
 Spherical harmonic GTOs are used.
 
 
 Conventional basis set:
 
   1  N  def2-svp [ 7s 4p 1d | 3s 2p 1d ]
   2  H  def2-svp [ 4s 1p | 2s 1p ]
   3  H  def2-svp [ 4s 1p | 2s 1p ]
   4  H  def2-svp [ 4s 1p | 2s 1p ]
   5  N  def2-svp [ 7s 4p 1d | 3s 2p 1d ]
   6  H  def2-svp [ 4s 1p | 2s 1p ]
   7  H  def2-svp [ 4s 1p | 2s 1p ]
   8  H  def2-svp [ 4s 1p | 2s 1p ]
   9  N  def2-svp [ 7s 4p 1d | 3s 2p 1d ]
  10  H  def2-svp [ 4s 1p | 2s 1p ]
  11  H  def2-svp [ 4s 1p | 2s 1p ]
  12  H  def2-svp [ 4s 1p | 2s 1p ]
 
 Basis functions:
            1             2             3             4             5             6             7             8             9            10
    0    1N1s          1N2s          1N3s          1N1pz         1N1py         1N1px         1N2pz         1N2py         1N2px         1N1d-2    
    1    1N1d-1        1N1d0         1N1d+1        1N1d+2        2H1s          2H2s          2H1pz         2H1py         2H1px         3H1s      
    2    3H2s          3H1pz         3H1py         3H1px         4H1s          4H2s          4H1pz         4H1py         4H1px         5N1s      
    3    5N2s          5N3s          5N1pz         5N1py         5N1px         5N2pz         5N2py         5N2px         5N1d-2        5N1d-1    
    4    5N1d0         5N1d+1        5N1d+2        6H1s          6H2s          6H1pz         6H1py         6H1px         7H1s          7H2s      
    5    7H1pz         7H1py         7H1px         8H1s          8H2s          8H1pz         8H1py         8H1px         9N1s          9N2s      
    6    9N3s          9N1pz         9N1py         9N1px         9N2pz         9N2py         9N2px         9N1d-2        9N1d-1        9N1d0     
    7    9N1d+1        9N1d+2       10H1s         10H2s         10H1pz        10H1py        10H1px        11H1s         11H2s         11H1pz     
    8   11H1py        11H1px        12H1s         12H2s         12H1pz        12H1py        12H1px     
 
 Maximum number of basis functions per shell:    6
 Total number of basis functions:     87
 
 
 Fitting basis set for the SCF calculation:
 
   1  N  def2-qzvpp-ri-jk [ 14s 10p 6d 2f 1g | 10s 8p 4d 2f 1g ]
   2  H  def2-qzvpp [ 7s 3p 2d 1f | 4s 3p 2d 1f ]
   3  H  def2-qzvpp [ 7s 3p 2d 1f | 4s 3p 2d 1f ]
   4  H  def2-qzvpp [ 7s 3p 2d 1f | 4s 3p 2d 1f ]
   5  N  def2-qzvpp-ri-jk [ 14s 10p 6d 2f 1g | 10s 8p 4d 2f 1g ]
   6  H  def2-qzvpp [ 7s 3p 2d 1f | 4s 3p 2d 1f ]
   7  H  def2-qzvpp [ 7s 3p 2d 1f | 4s 3p 2d 1f ]
   8  H  def2-qzvpp [ 7s 3p 2d 1f | 4s 3p 2d 1f ]
   9  N  def2-qzvpp-ri-jk [ 14s 10p 6d 2f 1g | 10s 8p 4d 2f 1g ]
  10  H  def2-qzvpp [ 7s 3p 2d 1f | 4s 3p 2d 1f ]
  11  H  def2-qzvpp [ 7s 3p 2d 1f | 4s 3p 2d 1f ]
  12  H  def2-qzvpp [ 7s 3p 2d 1f | 4s 3p 2d 1f ]
 
 Basis functions:
            1             2             3             4             5             6             7             8             9            10
    0    1N1s          1N2s          1N3s          1N4s          1N5s          1N6s          1N7s          1N8s          1N9s          1N10s     
    1    1N1pz         1N1py         1N1px         1N2pz         1N2py         1N2px         1N3pz         1N3py         1N3px         1N4pz     
    2    1N4py         1N4px         1N5pz         1N5py         1N5px         1N6pz         1N6py         1N6px         1N7pz         1N7py     
    3    1N7px         1N8pz         1N8py         1N8px         1N1d-2        1N1d-1        1N1d0         1N1d+1        1N1d+2        1N2d-2    
    4    1N2d-1        1N2d0         1N2d+1        1N2d+2        1N3d-2        1N3d-1        1N3d0         1N3d+1        1N3d+2        1N4d-2    
    5    1N4d-1        1N4d0         1N4d+1        1N4d+2        1N1f-3        1N1f-2        1N1f-1        1N1f0         1N1f+1        1N1f+2    
    6    1N1f+3        1N2f-3        1N2f-2        1N2f-1        1N2f0         1N2f+1        1N2f+2        1N2f+3        1N1g-4        1N1g-3    
    7    1N1g-2        1N1g-1        1N1g0         1N1g+1        1N1g+2        1N1g+3        1N1g+4        2H1s          2H2s          2H3s      
    8    2H4s          2H1pz         2H1py         2H1px         2H2pz         2H2py         2H2px         2H3pz         2H3py         2H3px     
    9    2H1d-2        2H1d-1        2H1d0         2H1d+1        2H1d+2        2H2d-2        2H2d-1        2H2d0         2H2d+1        2H2d+2    
   10    2H1f-3        2H1f-2        2H1f-1        2H1f0         2H1f+1        2H1f+2        2H1f+3        3H1s          3H2s          3H3s      
   11    3H4s          3H1pz         3H1py         3H1px         3H2pz         3H2py         3H2px         3H3pz         3H3py         3H3px     
   12    3H1d-2        3H1d-1        3H1d0         3H1d+1        3H1d+2        3H2d-2        3H2d-1        3H2d0         3H2d+1        3H2d+2    
   13    3H1f-3        3H1f-2        3H1f-1        3H1f0         3H1f+1        3H1f+2        3H1f+3        4H1s          4H2s          4H3s      
   14    4H4s          4H1pz         4H1py         4H1px         4H2pz         4H2py         4H2px         4H3pz         4H3py         4H3px     
   15    4H1d-2        4H1d-1        4H1d0         4H1d+1        4H1d+2        4H2d-2        4H2d-1        4H2d0         4H2d+1        4H2d+2    
   16    4H1f-3        4H1f-2        4H1f-1        4H1f0         4H1f+1        4H1f+2        4H1f+3        5N1s          5N2s          5N3s      
   17    5N4s          5N5s          5N6s          5N7s          5N8s          5N9s          5N10s         5N1pz         5N1py         5N1px     
   18    5N2pz         5N2py         5N2px         5N3pz         5N3py         5N3px         5N4pz         5N4py         5N4px         5N5pz     
   19    5N5py         5N5px         5N6pz         5N6py         5N6px         5N7pz         5N7py         5N7px         5N8pz         5N8py     
   20    5N8px         5N1d-2        5N1d-1        5N1d0         5N1d+1        5N1d+2        5N2d-2        5N2d-1        5N2d0         5N2d+1    
   21    5N2d+2        5N3d-2        5N3d-1        5N3d0         5N3d+1        5N3d+2        5N4d-2        5N4d-1        5N4d0         5N4d+1    
   22    5N4d+2        5N1f-3        5N1f-2        5N1f-1        5N1f0         5N1f+1        5N1f+2        5N1f+3        5N2f-3        5N2f-2    
   23    5N2f-1        5N2f0         5N2f+1        5N2f+2        5N2f+3        5N1g-4        5N1g-3        5N1g-2        5N1g-1        5N1g0     
   24    5N1g+1        5N1g+2        5N1g+3        5N1g+4        6H1s          6H2s          6H3s          6H4s          6H1pz         6H1py     
   25    6H1px         6H2pz         6H2py         6H2px         6H3pz         6H3py         6H3px         6H1d-2        6H1d-1        6H1d0     
   26    6H1d+1        6H1d+2        6H2d-2        6H2d-1        6H2d0         6H2d+1        6H2d+2        6H1f-3        6H1f-2        6H1f-1    
   27    6H1f0         6H1f+1        6H1f+2        6H1f+3        7H1s          7H2s          7H3s          7H4s          7H1pz         7H1py     
   28    7H1px         7H2pz         7H2py         7H2px         7H3pz         7H3py         7H3px         7H1d-2        7H1d-1        7H1d0     
   29    7H1d+1        7H1d+2        7H2d-2        7H2d-1        7H2d0         7H2d+1        7H2d+2        7H1f-3        7H1f-2        7H1f-1    
   30    7H1f0         7H1f+1        7H1f+2        7H1f+3        8H1s          8H2s          8H3s          8H4s          8H1pz         8H1py     
   31    8H1px         8H2pz         8H2py         8H2px         8H3pz         8H3py         8H3px         8H1d-2        8H1d-1        8H1d0     
   32    8H1d+1        8H1d+2        8H2d-2        8H2d-1        8H2d0         8H2d+1        8H2d+2        8H1f-3        8H1f-2        8H1f-1    
   33    8H1f0         8H1f+1        8H1f+2        8H1f+3        9N1s          9N2s          9N3s          9N4s          9N5s          9N6s      
   34    9N7s          9N8s          9N9s          9N10s         9N1pz         9N1py         9N1px         9N2pz         9N2py         9N2px     
   35    9N3pz         9N3py         9N3px         9N4pz         9N4py         9N4px         9N5pz         9N5py         9N5px         9N6pz     
   36    9N6py         9N6px         9N7pz         9N7py         9N7px         9N8pz         9N8py         9N8px         9N1d-2        9N1d-1    
   37    9N1d0         9N1d+1        9N1d+2        9N2d-2        9N2d-1        9N2d0         9N2d+1        9N2d+2        9N3d-2        9N3d-1    
   38    9N3d0         9N3d+1        9N3d+2        9N4d-2        9N4d-1        9N4d0         9N4d+1        9N4d+2        9N1f-3        9N1f-2    
   39    9N1f-1        9N1f0         9N1f+1        9N1f+2        9N1f+3        9N2f-3        9N2f-2        9N2f-1        9N2f0         9N2f+1    
   40    9N2f+2        9N2f+3        9N1g-4        9N1g-3        9N1g-2        9N1g-1        9N1g0         9N1g+1        9N1g+2        9N1g+3    
   41    9N1g+4       10H1s         10H2s         10H3s         10H4s         10H1pz        10H1py        10H1px        10H2pz        10H2py     
   42   10H2px        10H3pz        10H3py        10H3px        10H1d-2       10H1d-1       10H1d0        10H1d+1       10H1d+2       10H2d-2    
   43   10H2d-1       10H2d0        10H2d+1       10H2d+2       10H1f-3       10H1f-2       10H1f-1       10H1f0        10H1f+1       10H1f+2    
   44   10H1f+3       11H1s         11H2s         11H3s         11H4s         11H1pz        11H1py        11H1px        11H2pz        11H2py     
   45   11H2px        11H3pz        11H3py        11H3px        11H1d-2       11H1d-1       11H1d0        11H1d+1       11H1d+2       11H2d-2    
   46   11H2d-1       11H2d0        11H2d+1       11H2d+2       11H1f-3       11H1f-2       11H1f-1       11H1f0        11H1f+1       11H1f+2    
   47   11H1f+3       12H1s         12H2s         12H3s         12H4s         12H1pz        12H1py        12H1px        12H2pz        12H2py     
   48   12H2px        12H3pz        12H3py        12H3px        12H1d-2       12H1d-1       12H1d0        12H1d+1       12H1d+2       12H2d-2    
   49   12H2d-1       12H2d0        12H2d+1       12H2d+2       12H1f-3       12H1f-2       12H1f-1       12H1f0        12H1f+1       12H1f+2    
   50   12H1f+3    
 
 Maximum number of basis functions per shell:   24
 Total number of basis functions:    501
 
 
 Initializing the SAD routines for the initial guess...
 Checking the files required for the initial guess...
 Atomic density files have been found for the atoms with the following serial numbers:
  
 Atomic density files have not been found for the atoms with the following serial numbers:
  5 6 7 8
 Generating SCFDENSITIES.N.def2-svp.0
 Generating SCFDENSITIES.H.def2-svp.0
 CPU time [min]:     0.219                   Wall time [min]:     0.137
 
 Character table for point group C1:
 
          E  
    A     1
 
 Number of basis functions per irrep:
    A      87
 
 
 Calculation of overlap integrals...
 CPU time [min]:     0.221                   Wall time [min]:     0.137
 
 Calculation of the square root of the overlap matrix...
 Minimum eigenvalue of the overlap matrix: 0.236491E-01
 CPU time [min]:     0.238                   Wall time [min]:     0.138
 
 Calculation of kinetic energy integrals...
 CPU time [min]:     0.239                   Wall time [min]:     0.138
 Calculation of dipole moment integrals...
 CPU time [min]:     0.240                   Wall time [min]:     0.138
 Calculation of nuclear attraction integrals...
 CPU time [min]:     0.241                   Wall time [min]:     0.138
 
 Calculation of prescreening integrals...
 CPU time [min]:     0.260                   Wall time [min]:     0.138
 
 Calculation of two-center Coulomb integrals...
   1% done.
  13% done.
  24% done.
  35% done.
  47% done.
  60% done.
  72% done.
  86% done.
  97% done.
 100% done.
 CPU time [min]:     0.272                   Wall time [min]:     0.138
 
 Cholesky decomposition of the two-center matrix...
 Reciprocal of the condition number:  0.862107E-05
 CPU time [min]:     0.312                   Wall time [min]:     0.139
 
 
 Running small-basis SCF...

 ************************ 2026-02-26 23:17:10 *************************
 Executing scf...

 @scfsetup: integrals calculated directly
            mrcc/integ direct run
 @scfsetup: calculating on full matrices
            not using symmetry adapted basis
 @scfsetup: diis switched on
 @scfsetup: number of steps to extrapolate from  10
 @scfsetup: tolerance in energy deviation    0.100000E-07
            tolerance in density deviation    0.100000E-08
 @scfsetup: maximum number of iterations: 200
 @scfsetup: restricted closed shell hf calc
 @scfsetup: starting scf from superposition of atomic densities
 @scfsetup: occupation set:
            from initial orbitals
 @scfsetup: Parameter-set for SCF acceleration: normal
 @scfsetup: diis runs from iteration:   2
 @scfsetup: diis runs to iteration: 200
 @scfsetup: diis runs in every iteration
 @scfsetup: diiswatch is disabled                   
 @scfsetup: diis dtol criteria to switch on:      0.0000E+00
           (or the iteration number below is reached)
 @scfsetup: static damping scheme
            iteration step criteria to turn damping off: 3
 @scfsetup: dynamic level shifting
            tolarance in HOMO-LUMO gap:  0.200
            tolarance in density deviation:     0.0000E+00
            iteration step criteria to turn level shifting off: 8
 Allocation of 46.0 Gbytes of memory...
 ======================================================================
 ITERATION STEP   1
 CPU time [min]:     0.040                   Wall time [min]:     0.008
 

 SCF control                  : initial
 Damping factor/level shift   : 0.000/0.200
 DIIS [start/end/frequency]   :   2 /200 /  1

 Constructing Fock-matrix...
 
 Pipek-Mezey localization...
 Step  Convergence
   1   0.831950707497
   2   0.000966754336
   3   0.000001442468
   4   0.000000010631
   5   0.000000000037
 CPU time [min]:     0.066                   Wall time [min]:     0.009
 
 Constructing local fitting domains...
 Maximum number of atoms in fitting domains:    7
 Average number of atoms in fitting domains:    4.6
 
 First step of Coulomb + first step of exchange...
 Exchange contribution is evaluated for MOs 1 to 5.
   1% done.
  14% done.
  25% done.
  37% done.
  49% done.
  60% done.
  72% done.
  83% done.
 100% done.
 Fitting and assembly step of exchange...
 CPU time [min]:     0.161                   Wall time [min]:     0.010
 
 Second step of Coulomb...
   1% done.
  14% done.
  25% done.
  37% done.
  49% done.
  60% done.
  72% done.
  83% done.
 100% done.
 CPU time [min]:     0.185                   Wall time [min]:     0.011
 
 Gradient norm:      2.3664E+00
 RMS of [F,P]:                                         0.02510677683402
 RMS of difference density:                            0.00910337197258
 Gap [au]:  0.65325431
 ALPHA OCC:   5
 BETA  OCC:   5
 
 ***HARTREE-FOCK ENERGY IN STEP   1 IS        -55.8598424909819755 [AU]
 ======================================================================
 ITERATION STEP   2
 CPU time [min]:     0.197                   Wall time [min]:     0.011
 

 SCF control                  : diis
 Damping factor/level shift   : 0.000/0.000
 DIIS [start/end/frequency]   :   2 /200 /  1

 Constructing Fock-matrix...
 
 Pipek-Mezey localization...
 Step  Convergence
   1   0.010394794894
   2   0.009950505693
   3   0.000000791763
   4   0.000000000490
 CPU time [min]:     0.220                   Wall time [min]:     0.011
 
 Constructing local fitting domains...
 Maximum number of atoms in fitting domains:    7
 Average number of atoms in fitting domains:    4.6
 
 First step of Coulomb + first step of exchange...
 Exchange contribution is evaluated for MOs 1 to 5.
   1% done.
  14% done.
  25% done.
  37% done.
  49% done.
  60% done.
  72% done.
  83% done.
 100% done.
 Fitting and assembly step of exchange...
 CPU time [min]:     0.295                   Wall time [min]:     0.013
 
 Second step of Coulomb...
   1% done.
  14% done.
  25% done.
  37% done.
  49% done.
  60% done.
  72% done.
  83% done.
 100% done.
 CPU time [min]:     0.318                   Wall time [min]:     0.013
 
 Gradient norm:      3.2356E-01
 DIIS is running in this iteration step.
 RMS of [F,P]:                                         0.00536360999862
 RMS of difference density:                            0.00425759166912
 Gap [au]:  0.47373215
 ALPHA OCC:   5
 BETA  OCC:   5
 
 ***HARTREE-FOCK ENERGY IN STEP   2 IS        -56.1232889587750350 [AU]
 
 Step comparison  Energy Drift [au]  DIIS error drift  Gradient drift
        1            2.6345E-01         1.9743E-02       2.0428E+00
        2            5.6123E+01         1.0000E-09       2.0428E+00
 ======================================================================
 ITERATION STEP   3
 CPU time [min]:     0.333                   Wall time [min]:     0.013
 

 SCF control                  : diis
 Damping factor/level shift   : 0.000/0.000
 DIIS [start/end/frequency]   :   2 /200 /  1

 Constructing Fock-matrix...
 
 Pipek-Mezey localization...
 Step  Convergence
   1   0.010193277275
   2   0.009959494133
   3   0.000000663162
   4   0.000000000386
 CPU time [min]:     0.356                   Wall time [min]:     0.014
 
 Constructing local fitting domains...
 Local fitting domains are unchanged.
 
 First step of Coulomb + first step of exchange...
 Exchange contribution is evaluated for MOs 1 to 5.
   1% done.
  14% done.
  25% done.
  37% done.
  49% done.
  60% done.
  72% done.
  83% done.
 100% done.
 Fitting and assembly step of exchange...
 CPU time [min]:     0.427                   Wall time [min]:     0.015
 
 Second step of Coulomb...
   1% done.
  14% done.
  25% done.
  37% done.
  49% done.
  60% done.
  72% done.
  83% done.
 100% done.
 CPU time [min]:     0.450                   Wall time [min]:     0.015
 
 Gradient norm:      1.2342E-01
 DIIS is running in this iteration step.
 RMS of [F,P]:                                         0.00255922647347
 RMS of difference density:                            0.00129001520782
 Gap [au]:  0.53462574
 ALPHA OCC:   5
 BETA  OCC:   5
 
 ***HARTREE-FOCK ENERGY IN STEP   3 IS        -56.1425733332736598 [AU]
 
 Step comparison  Energy Drift [au]  DIIS error drift  Gradient drift
        2            1.9284E-02         2.8044E-03       2.0014E-01
 ======================================================================
 ITERATION STEP   4
 CPU time [min]:     0.495                   Wall time [min]:     0.016
 

 SCF control                  : diis
 Damping factor/level shift   : 0.000/0.000
 DIIS [start/end/frequency]   :   2 /200 /  1

 Constructing Fock-matrix...
 
 Pipek-Mezey localization...
 Step  Convergence
   1   0.019967040970
   2   0.020304023068
   3   0.000001795996
   4   0.000000000208
 CPU time [min]:     0.518                   Wall time [min]:     0.017
 
 Constructing local fitting domains...
 Local fitting domains are unchanged.
 
 First step of Coulomb + first step of exchange...
 Exchange contribution is evaluated for MOs 1 to 5.
   1% done.
  14% done.
  25% done.
  37% done.
  49% done.
  60% done.
  72% done.
  83% done.
 100% done.
 Fitting and assembly step of exchange...
 CPU time [min]:     0.589                   Wall time [min]:     0.018
 
 Second step of Coulomb...
   1% done.
  14% done.
  25% done.
  37% done.
  49% done.
  60% done.
  72% done.
  83% done.
 100% done.
 CPU time [min]:     0.612                   Wall time [min]:     0.018
 
 Gradient norm:      2.4212E-02
 DIIS is running in this iteration step.
 RMS of [F,P]:                                         0.00031671140971
 RMS of difference density:                            0.00032274250815
 Gap [au]:  0.52662573
 ALPHA OCC:   5
 BETA  OCC:   5
 
 ***HARTREE-FOCK ENERGY IN STEP   4 IS        -56.1478453594301925 [AU]
 
 Step comparison  Energy Drift [au]  DIIS error drift  Gradient drift
        3            5.2720E-03         2.2425E-03       9.9210E-02
 ======================================================================
 ITERATION STEP   5
 CPU time [min]:     0.627                   Wall time [min]:     0.018
 

 SCF control                  : diis
 Damping factor/level shift   : 0.000/0.000
 DIIS [start/end/frequency]   :   2 /200 /  1

 Constructing Fock-matrix...
 
 Pipek-Mezey localization...
 Step  Convergence
   1   0.030035310277
   2   0.029878120401
   3   0.000043371185
   4   0.000000293964
   5   0.000000000609
 CPU time [min]:     0.651                   Wall time [min]:     0.019
 
 Constructing local fitting domains...
 Local fitting domains are unchanged.
 
 First step of Coulomb + first step of exchange...
 Exchange contribution is evaluated for MOs 1 to 5.
   1% done.
  14% done.
  25% done.
  37% done.
  49% done.
  60% done.
  72% done.
  83% done.
 100% done.
 Fitting and assembly step of exchange...
 CPU time [min]:     0.722                   Wall time [min]:     0.020
 
 Second step of Coulomb...
   1% done.
  14% done.
  25% done.
  37% done.
  49% done.
  60% done.
  72% done.
  83% done.
 100% done.
 CPU time [min]:     0.745                   Wall time [min]:     0.020
 
 Gradient norm:      1.9327E-03
 DIIS is running in this iteration step.
 RMS of [F,P]:                                         0.00005290900051
 RMS of difference density:                            0.00004449886818
 Gap [au]:  0.52687257
 ALPHA OCC:   5
 BETA  OCC:   5
 
 ***HARTREE-FOCK ENERGY IN STEP   5 IS        -56.1480072838954456 [AU]
 
 Step comparison  Energy Drift [au]  DIIS error drift  Gradient drift
        4            1.6192E-04         2.6380E-04       2.2279E-02
 ======================================================================
 ITERATION STEP   6
 CPU time [min]:     0.761                   Wall time [min]:     0.021
 

 SCF control                  : diis
 Damping factor/level shift   : 0.000/0.000
 DIIS [start/end/frequency]   :   2 /200 /  1

 Constructing Fock-matrix...
 
 Pipek-Mezey localization...
 Step  Convergence
   1   0.045699164980
   2   0.044215159554
   3   0.000001799067
   4   0.000000000191
   5   0.000000000000
 CPU time [min]:     0.784                   Wall time [min]:     0.021
 
 Constructing local fitting domains...
 Local fitting domains are unchanged.
 
 First step of Coulomb + first step of exchange...
 Exchange contribution is evaluated for MOs 1 to 5.
   1% done.
  14% done.
  25% done.
  37% done.
  49% done.
  60% done.
  72% done.
  83% done.
 100% done.
 Fitting and assembly step of exchange...
 CPU time [min]:     0.855                   Wall time [min]:     0.022
 
 Second step of Coulomb...
   1% done.
  14% done.
  25% done.
  37% done.
  49% done.
  60% done.
  72% done.
  83% done.
 100% done.
 CPU time [min]:     0.878                   Wall time [min]:     0.022
 
 Gradient norm:      3.1426E-04
 DIIS is running in this iteration step.
 RMS of [F,P]:                                         0.00000558966876
 RMS of difference density:                            0.00000432996623
 Gap [au]:  0.52690556
 ALPHA OCC:   5
 BETA  OCC:   5
 
 ***HARTREE-FOCK ENERGY IN STEP   6 IS        -56.1480106572759325 [AU]
 
 Step comparison  Energy Drift [au]  DIIS error drift  Gradient drift
        5            3.3734E-06         4.7319E-05       1.6184E-03
 ======================================================================
 ITERATION STEP   7
 CPU time [min]:     0.893                   Wall time [min]:     0.023
 

 SCF control                  : diis
 Damping factor/level shift   : 0.000/0.000
 DIIS [start/end/frequency]   :   2 /200 /  1

 Constructing Fock-matrix...
 
 Pipek-Mezey localization...
 Step  Convergence
   1   0.045957590413
   2   0.044366199509
   3   0.000027151038
   4   0.000000090997
   5   0.000000000205
   6   0.000000000000
 CPU time [min]:     0.916                   Wall time [min]:     0.023
 
 Constructing local fitting domains...
 Local fitting domains are unchanged.
 
 First step of Coulomb + first step of exchange...
 Exchange contribution is evaluated for MOs 1 to 5.
   1% done.
  14% done.
  25% done.
  37% done.
  49% done.
  60% done.
  72% done.
  83% done.
 100% done.
 Fitting and assembly step of exchange...
 CPU time [min]:     0.987                   Wall time [min]:     0.024
 
 Second step of Coulomb...
   1% done.
  14% done.
  25% done.
  37% done.
  49% done.
  60% done.
  72% done.
  83% done.
 100% done.
 CPU time [min]:     1.012                   Wall time [min]:     0.025
 
 Gradient norm:      8.4133E-05
 DIIS is running in this iteration step.
 RMS of [F,P]:                                         0.00000094644387
 RMS of difference density:                            0.00000103597744
 Gap [au]:  0.52689250
 ALPHA OCC:   5
 BETA  OCC:   5
 
 ***HARTREE-FOCK ENERGY IN STEP   7 IS        -56.1480106960908643 [AU]
 
 Step comparison  Energy Drift [au]  DIIS error drift  Gradient drift
        6            3.8815E-08         4.6432E-06       2.3013E-04
 ======================================================================
 ITERATION STEP   8
 CPU time [min]:     1.027                   Wall time [min]:     0.025
 

 SCF control                  : diis
 Damping factor/level shift   : 0.000/0.000
 DIIS [start/end/frequency]   :   2 /200 /  1

 Constructing Fock-matrix...
 
 Pipek-Mezey localization...
 Step  Convergence
   1   0.045957409798
   2   0.044538215960
   3   0.000008259893
   4   0.000000007511
   5   0.000000000042
   6   0.000000000000
 CPU time [min]:     1.050                   Wall time [min]:     0.025
 
 Constructing local fitting domains...
 Local fitting domains are unchanged.
 
 First step of Coulomb + first step of exchange...
 Exchange contribution is evaluated for MOs 1 to 5.
   1% done.
  14% done.
  25% done.
  37% done.
  49% done.
  60% done.
  72% done.
  83% done.
 100% done.
 Fitting and assembly step of exchange...
 CPU time [min]:     1.121                   Wall time [min]:     0.027
 
 Second step of Coulomb...
   1% done.
  14% done.
  25% done.
  37% done.
  49% done.
  60% done.
  72% done.
  83% done.
 100% done.
 CPU time [min]:     1.145                   Wall time [min]:     0.027
 
 Gradient norm:      1.1238E-05
 DIIS is running in this iteration step.
 RMS of [F,P]:                                         0.00000018427106
 RMS of difference density:                            0.00000031832828
 Gap [au]:  0.52688784
 ALPHA OCC:   5
 BETA  OCC:   5
 
 ***HARTREE-FOCK ENERGY IN STEP   8 IS        -56.1480106979792382 [AU]
 
 Step comparison  Energy Drift [au]  DIIS error drift  Gradient drift
        7            1.8884E-09         7.6217E-07       7.2895E-05
 ======================================================================
 ITERATION STEP   9
 CPU time [min]:     1.159                   Wall time [min]:     0.027
 

 SCF control                  : diis
 Damping factor/level shift   : 0.000/0.000
 DIIS [start/end/frequency]   :   2 /200 /  1

 Constructing Fock-matrix...
 
 Pipek-Mezey localization...
 Step  Convergence
   1   0.045957171281
   2   0.044305301934
   3   0.000001868527
   4   0.000000000177
   5   0.000000000000
 CPU time [min]:     1.182                   Wall time [min]:     0.028
 
 Constructing local fitting domains...
 Local fitting domains are unchanged.
 
 First step of Coulomb + first step of exchange...
 Exchange contribution is evaluated for MOs 1 to 5.
   1% done.
  14% done.
  25% done.
  37% done.
  49% done.
  60% done.
  72% done.
  83% done.
 100% done.
 Fitting and assembly step of exchange...
 CPU time [min]:     1.253                   Wall time [min]:     0.029
 
 Second step of Coulomb...
   1% done.
  14% done.
  25% done.
  37% done.
  49% done.
  60% done.
  72% done.
  83% done.
 100% done.
 CPU time [min]:     1.277                   Wall time [min]:     0.029
 
 Gradient norm:      2.6081E-06
 DIIS is running in this iteration step.
 RMS of [F,P]:                                         0.00000003172852
 RMS of difference density:                            0.00000009169022
 Gap [au]:  0.52688751
 ALPHA OCC:   5
 BETA  OCC:   5
 
 ***HARTREE-FOCK ENERGY IN STEP   9 IS        -56.1480106980804692 [AU]
 
 Step comparison  Energy Drift [au]  DIIS error drift  Gradient drift
        8            1.0123E-10         1.5254E-07       8.6304E-06
 ======================================================================
 ITERATION STEP  10
 CPU time [min]:     1.293                   Wall time [min]:     0.029
 

 SCF control                  : diis
 Damping factor/level shift   : 0.000/0.000
 DIIS [start/end/frequency]   :   2 /200 /  1

 Constructing Fock-matrix...
 
 Pipek-Mezey localization...
 Step  Convergence
   1   0.046215930547
   2   0.044604799569
   3   0.000057974749
   4   0.000000318087
   5   0.000000000663
   6   0.000000000001
   7   0.000000000000
 CPU time [min]:     1.316                   Wall time [min]:     0.030
 
 Constructing local fitting domains...
 Local fitting domains are unchanged.
 
 First step of Coulomb + first step of exchange...
 Exchange contribution is evaluated for MOs 1 to 5.
   1% done.
  14% done.
  25% done.
  37% done.
  49% done.
  60% done.
  72% done.
  83% done.
 100% done.
 Fitting and assembly step of exchange...
 CPU time [min]:     1.387                   Wall time [min]:     0.031
 
 Second step of Coulomb...
   1% done.
  14% done.
  25% done.
  37% done.
  49% done.
  60% done.
  72% done.
  83% done.
 100% done.
 CPU time [min]:     1.412                   Wall time [min]:     0.031
 
 Gradient norm:      5.6083E-07
 DIIS is running in this iteration step.
 RMS of [F,P]:                                         0.00000000757985
 RMS of difference density:                            0.00000002478582
 Gap [au]:  0.52688754
 ALPHA OCC:   5
 BETA  OCC:   5
 
 ***HARTREE-FOCK ENERGY IN STEP  10 IS        -56.1480106980849882 [AU]
 
 Step comparison  Energy Drift [au]  DIIS error drift  Gradient drift
        9            4.5191E-12         2.4149E-08       2.0472E-06
 ======================================================================
 ITERATION STEP  11
 CPU time [min]:     1.426                   Wall time [min]:     0.032
 

 SCF control                  : diis
 Damping factor/level shift   : 0.000/0.000
 DIIS [start/end/frequency]   :   2 /200 /  1

 Constructing Fock-matrix...
 
 Pipek-Mezey localization...
 Step  Convergence
   1   0.045706955613
   2   0.044246253532
   3   0.000028724045
   4   0.000000121646
   5   0.000000000315
   6   0.000000000001
 CPU time [min]:     1.449                   Wall time [min]:     0.032
 
 Constructing local fitting domains...
 Local fitting domains are unchanged.
 
 First step of Coulomb + first step of exchange...
 Exchange contribution is evaluated for MOs 1 to 5.
   1% done.
  14% done.
  25% done.
  37% done.
  49% done.
  60% done.
  72% done.
  83% done.
 100% done.
 Fitting and assembly step of exchange...
 CPU time [min]:     1.521                   Wall time [min]:     0.033
 
 Second step of Coulomb...
   1% done.
  14% done.
  25% done.
  37% done.
  49% done.
  60% done.
  72% done.
  83% done.
 100% done.
 CPU time [min]:     1.544                   Wall time [min]:     0.034
 
 Gradient norm:      4.9532E-08
 DIIS is running in this iteration step.
 RMS of [F,P]:                                         0.00000000070806
 RMS of difference density:                            0.00000000138964
 Gap [au]:  0.52688756
 ALPHA OCC:   5
 BETA  OCC:   5
 
 ***HARTREE-FOCK ENERGY IN STEP  11 IS        -56.1480106980853009 [AU]
 
 Step comparison  Energy Drift [au]  DIIS error drift  Gradient drift
       10            3.1264E-13         6.8718E-09       5.1130E-07
 ======================================================================
 ITERATION STEP  12
 CPU time [min]:     1.559                   Wall time [min]:     0.034
 

 SCF control                  : diis
 Damping factor/level shift   : 0.000/0.000
 DIIS [start/end/frequency]   :   2 /200 /  1

 Constructing Fock-matrix...
 
 Pipek-Mezey localization...
 Step  Convergence
   1   0.045555954959
   2   0.044407176342
   3   0.000008211167
   4   0.000000008632
   5   0.000000000047
   6   0.000000000000
 CPU time [min]:     1.583                   Wall time [min]:     0.034
 
 Constructing local fitting domains...
 Local fitting domains are unchanged.
 
 First step of Coulomb + first step of exchange...
 Exchange contribution is evaluated for MOs 1 to 5.
   1% done.
  14% done.
  25% done.
  37% done.
  49% done.
  60% done.
  72% done.
  83% done.
 100% done.
 Fitting and assembly step of exchange...
 CPU time [min]:     1.654                   Wall time [min]:     0.035
 
 Second step of Coulomb...
   1% done.
  14% done.
  25% done.
  37% done.
  49% done.
  60% done.
  72% done.
  83% done.
 100% done.
 CPU time [min]:     1.678                   Wall time [min]:     0.036
 
 Gradient norm:      3.9648E-09
 DIIS is running in this iteration step.
 RMS of [F,P]:                                         0.00000000007101
 RMS of difference density:                            0.00000000008723
 Gap [au]:  0.52688756
 ALPHA OCC:   5
 BETA  OCC:   5
 
 ***HARTREE-FOCK ENERGY IN STEP  12 IS        -56.1480106980853080 [AU]
 
 Step comparison  Energy Drift [au]  DIIS error drift  Gradient drift
       11            7.1054E-15         6.3705E-10       4.5567E-08
 
 The SCF iteration has converged.
 An extra iteration will be performed to calculate accurate SCF energy.
 
 ======================================================================
 ITERATION STEP  13
 CPU time [min]:     1.694                   Wall time [min]:     0.036
 

 SCF control                  : diis
 Damping factor/level shift   : 0.000/0.000
 DIIS [start/end/frequency]   :   2 /200 /  1

 Constructing Fock-matrix...
 
 Pipek-Mezey localization...
 Step  Convergence
   1   0.045813582236
   2   0.046673159834
   3   0.000059539612
   4   0.000000041971
   5   0.000000000004
   6   0.000000000000
 CPU time [min]:     1.718                   Wall time [min]:     0.037
 
 Constructing local fitting domains...
 Maximum number of atoms in fitting domains:   12
 Average number of atoms in fitting domains:   12.0
 
 First step of Coulomb + first step of exchange...
 Exchange contribution is evaluated for MOs 1 to 5.
   1% done.
  14% done.
  25% done.
  37% done.
  49% done.
  60% done.
  72% done.
  83% done.
 100% done.
 Fitting and assembly step of exchange...
 CPU time [min]:     1.803                   Wall time [min]:     0.038
 
 Second step of Coulomb...
   1% done.
  14% done.
  25% done.
  37% done.
  49% done.
  60% done.
  72% done.
  83% done.
 100% done.
 CPU time [min]:     1.827                   Wall time [min]:     0.038
 
 Gradient norm:      1.6619E-06
 RMS of [F,P]:                                         0.00000004107915
 RMS of difference density:                            0.00000006463235
 Gap [au]:  0.52688065
 ALPHA OCC:   5
 BETA  OCC:   5
 
 ***HARTREE-FOCK ENERGY IN STEP  13 IS        -56.1480109392049087 [AU]
 
 Step comparison  Energy Drift [au]  DIIS error drift  Gradient drift
       12            2.4112E-07        -4.1008E-08      -1.6579E-06
 Warning! The DIIS error goes uphill (with respect to previous step).
 Warning! The DIIS error goes uphill (with respect to step  12 ).
 Warning! The gradient goes uphill (with respect to previous step).
 Warning! The gradient goes uphill (with respect to step  12 ).
 ======================================================================
 
 SUCCESS...
 THE SCF ITERATION HAS CONVERGED!
 
                   A   
 FINAL ALPHA OCC:   5
 FINAL BETA  OCC:   5
 
 ***FINAL HARTREE-FOCK ENERGY:        -56.1480109392049087 [AU]
 
 Orbital energies [au]:
      Irrep         Alpha          Beta
    1   A        -15.539761     -15.539761
    2   A         -1.111587      -1.111587
    3   A         -0.615527      -0.615527
    4   A         -0.615432      -0.615432
    5   A         -0.418851      -0.418851
 
    6   A          0.108030       0.108030
    7   A          0.114764       0.114764
    8   A          0.184067       0.184067
    9   A          0.237138       0.237138
   10   A          0.240965       0.240965
   11   A          0.244446       0.244446
   12   A          0.254746       0.254746
   13   A          0.279823       0.279823
   14   A          0.301038       0.301038
   15   A          0.437651       0.437651
   16   A          0.485890       0.485890
   17   A          0.588687       0.588687
   18   A          0.644330       0.644330
   19   A          0.703608       0.703608
   20   A          0.710274       0.710274
   21   A          0.710710       0.710710
   22   A          0.721590       0.721590
   23   A          0.750025       0.750025
   24   A          0.756797       0.756797
   25   A          0.890809       0.890809
   26   A          0.994375       0.994375
   27   A          1.094954       1.094954
   28   A          1.115377       1.115377
   29   A          1.223993       1.223993
   30   A          1.455171       1.455171
   31   A          1.458421       1.458421
   32   A          1.571156       1.571156
   33   A          1.573598       1.573598
   34   A          1.575748       1.575748
   35   A          1.588932       1.588932
   36   A          1.590916       1.590916
   37   A          1.624314       1.624314
   38   A          1.758116       1.758116
   39   A          1.785905       1.785905
   40   A          1.867775       1.867775
   41   A          1.958185       1.958185
   42   A          1.960302       1.960302
   43   A          1.960620       1.960620
   44   A          1.966959       1.966959
   45   A          1.996462       1.996462
   46   A          2.073903       2.073903
   47   A          2.098567       2.098567
   48   A          2.269277       2.269277
   49   A          2.269667       2.269667
   50   A          2.383621       2.383621
   51   A          2.417298       2.417298
   52   A          2.439220       2.439220
   53   A          2.444042       2.444042
   54   A          2.462868       2.462868
   55   A          2.463118       2.463118
   56   A          2.464031       2.464031
   57   A          2.482534       2.482534
   58   A          2.483814       2.483814
   59   A          2.484130       2.484130
   60   A          2.485936       2.485936
   61   A          2.556663       2.556663
   62   A          2.767667       2.767667
   63   A          3.029736       3.029736
   64   A          3.104506       3.104506
   65   A          3.157308       3.157308
   66   A          3.162753       3.162753
   67   A          3.269181       3.269181
   68   A          3.693018       3.693018
   69   A          3.707098       3.707098
   70   A          4.010051       4.010051
   71   A          4.011902       4.011902
   72   A          4.027219       4.027219
   73   A          4.029719       4.029719
   74   A          4.029854       4.029854
   75   A          4.064632       4.064632
   76   A          4.147631       4.147631
   77   A          4.148694       4.148694
   78   A          4.150329       4.150329
   79   A          4.150639       4.150639
   80   A          4.882912       4.882912
   81   A          4.929109       4.929109
   82   A          6.040356       6.040356
   83   A          6.042288       6.042288
   84   A          6.043276       6.043276
   85   A          6.047519       6.047519
   86   A         26.588949      26.588949
   87   A         26.626200      26.626200
 
 RETURNING FROM SCF ALGORITHM
 ======================================================================

 ************************ 2026-02-26 23:17:12 *************************
 Executing integ...

 Allocation of 46.0 Gbytes of memory...
 
 
 Number of atoms:                 12
 Charge:                           0
 Number of electrons:             10
 Number of core electrons:         2
 Spin multiplicity:                1
 
                 Cartesian coordinates [bohr]      Atomic mass [AMU]  Z
   1  N     6.82182577    2.87346447    7.72099687     0.000000       0
   2  H     8.36625160    2.20896759    8.68871146     0.000000       0
   3  H     7.48639849    3.84114800    6.17641118     0.000000       0
   4  H     5.85401804    1.32911599    7.05654762     0.000000       0
   5  N     7.72105127    6.82177201   12.56860613    14.003074       7
   6  H     7.05646455    5.85409719   11.02403942     1.007825       1
   7  H     8.68882825    8.36611725   11.90418158     1.007825       1
   8  H     6.17659278    7.48627216   13.53633668     1.007825       1
   9  N     7.72105127   16.51701190   12.56860613     0.000000       0
  10  H     7.05646455   15.54933707   11.02403942     0.000000       0
  11  H     8.68882825   18.06135713   11.90418158     0.000000       0
  12  H     6.17659278   17.18151205   13.53633668     0.000000       0
 
 This molecule is an asymmetric top.
 
 Point group: C1  
 Computational point group: C1  
 
 Cartesian coordinates in standard orientation [bohr]
   1  N    -5.43610543   -3.19750008    0.22693301
   2  H    -5.78247369   -1.95293584   -1.22026000
   3  H    -4.84130148   -4.85988698   -0.57711383
   4  H    -7.13437691   -3.55570609    1.09337358
   5  N    -0.40315807    0.60547308   -0.09538760
   6  H    -1.74117591   -0.71340139    0.38838385
   7  H     0.97539412   -0.31878345   -1.09957791
   8  H     0.40886235    1.22875095    1.55250876
   9  N     8.99840105   -1.75660166    0.07480467
  10  H     7.66038322   -3.07547612    0.55857612
  11  H    10.37695325   -2.68085819   -0.92938564
  12  H     9.81042147   -1.13332379    1.72270104
 
 Nuclear repulsion energy [au]:         11.785807877699
 
 
 Basis set information:
 
 Maximum angular momentum: g
 Maximum number of contracted Gaussians:   11
 Maximum number of primitive Gaussians:    14
 Spherical harmonic GTOs are used.
 
 
 Conventional basis set:
 
   1  N  aug-cc-pvdz [ 10s 5p 2d | 4s 3p 2d ]
   2  H  aug-cc-pvdz [ 5s 2p | 3s 2p ]
   3  H  aug-cc-pvdz [ 5s 2p | 3s 2p ]
   4  H  aug-cc-pvdz [ 5s 2p | 3s 2p ]
   5  N  aug-cc-pvdz [ 10s 5p 2d | 4s 3p 2d ]
   6  H  aug-cc-pvdz [ 5s 2p | 3s 2p ]
   7  H  aug-cc-pvdz [ 5s 2p | 3s 2p ]
   8  H  aug-cc-pvdz [ 5s 2p | 3s 2p ]
   9  N  aug-cc-pvdz [ 10s 5p 2d | 4s 3p 2d ]
  10  H  aug-cc-pvdz [ 5s 2p | 3s 2p ]
  11  H  aug-cc-pvdz [ 5s 2p | 3s 2p ]
  12  H  aug-cc-pvdz [ 5s 2p | 3s 2p ]
 
 Basis functions:
            1             2             3             4             5             6             7             8             9            10
    0    1N1s          1N2s          1N3s          1N4s          1N1pz         1N1py         1N1px         1N2pz         1N2py         1N2px     
    1    1N3pz         1N3py         1N3px         1N1d-2        1N1d-1        1N1d0         1N1d+1        1N1d+2        1N2d-2        1N2d-1    
    2    1N2d0         1N2d+1        1N2d+2        2H1s          2H2s          2H3s          2H1pz         2H1py         2H1px         2H2pz     
    3    2H2py         2H2px         3H1s          3H2s          3H3s          3H1pz         3H1py         3H1px         3H2pz         3H2py     
    4    3H2px         4H1s          4H2s          4H3s          4H1pz         4H1py         4H1px         4H2pz         4H2py         4H2px     
    5    5N1s          5N2s          5N3s          5N4s          5N1pz         5N1py         5N1px         5N2pz         5N2py         5N2px     
    6    5N3pz         5N3py         5N3px         5N1d-2        5N1d-1        5N1d0         5N1d+1        5N1d+2        5N2d-2        5N2d-1    
    7    5N2d0         5N2d+1        5N2d+2        6H1s          6H2s          6H3s          6H1pz         6H1py         6H1px         6H2pz     
    8    6H2py         6H2px         7H1s          7H2s          7H3s          7H1pz         7H1py         7H1px         7H2pz         7H2py     
    9    7H2px         8H1s          8H2s          8H3s          8H1pz         8H1py         8H1px         8H2pz         8H2py         8H2px     
   10    9N1s          9N2s          9N3s          9N4s          9N1pz         9N1py         9N1px         9N2pz         9N2py         9N2px     
   11    9N3pz         9N3py         9N3px         9N1d-2        9N1d-1        9N1d0         9N1d+1        9N1d+2        9N2d-2        9N2d-1    
   12    9N2d0         9N2d+1        9N2d+2       10H1s         10H2s         10H3s         10H1pz        10H1py        10H1px        10H2pz     
   13   10H2py        10H2px        11H1s         11H2s         11H3s         11H1pz        11H1py        11H1px        11H2pz        11H2py     
   14   11H2px        12H1s         12H2s         12H3s         12H1pz        12H1py        12H1px        12H2pz        12H2py        12H2px     
 
 Maximum number of basis functions per shell:   10
 Total number of basis functions:    150
 
 
 Fitting basis set for the SCF calculation:
 
   1  N  aug-cc-pvdz-ri-jk [ 11s 8p 6d 3f | 11s 8p 6d 3f ]
   2  H  aug-cc-pvdz-ri-jk [ 5s 4p 3d | 5s 4p 3d ]
   3  H  aug-cc-pvdz-ri-jk [ 5s 4p 3d | 5s 4p 3d ]
   4  H  aug-cc-pvdz-ri-jk [ 5s 4p 3d | 5s 4p 3d ]
   5  N  aug-cc-pvdz-ri-jk [ 11s 8p 6d 3f | 11s 8p 6d 3f ]
   6  H  aug-cc-pvdz-ri-jk [ 5s 4p 3d | 5s 4p 3d ]
   7  H  aug-cc-pvdz-ri-jk [ 5s 4p 3d | 5s 4p 3d ]
   8  H  aug-cc-pvdz-ri-jk [ 5s 4p 3d | 5s 4p 3d ]
   9  N  aug-cc-pvdz-ri-jk [ 11s 8p 6d 3f | 11s 8p 6d 3f ]
  10  H  aug-cc-pvdz-ri-jk [ 5s 4p 3d | 5s 4p 3d ]
  11  H  aug-cc-pvdz-ri-jk [ 5s 4p 3d | 5s 4p 3d ]
  12  H  aug-cc-pvdz-ri-jk [ 5s 4p 3d | 5s 4p 3d ]
 
 Basis functions:
            1             2             3             4             5             6             7             8             9            10
    0    1N1s          1N2s          1N3s          1N4s          1N5s          1N6s          1N7s          1N8s          1N9s          1N10s     
    1    1N11s         1N1pz         1N1py         1N1px         1N2pz         1N2py         1N2px         1N3pz         1N3py         1N3px     
    2    1N4pz         1N4py         1N4px         1N5pz         1N5py         1N5px         1N6pz         1N6py         1N6px         1N7pz     
    3    1N7py         1N7px         1N8pz         1N8py         1N8px         1N1d-2        1N1d-1        1N1d0         1N1d+1        1N1d+2    
    4    1N2d-2        1N2d-1        1N2d0         1N2d+1        1N2d+2        1N3d-2        1N3d-1        1N3d0         1N3d+1        1N3d+2    
    5    1N4d-2        1N4d-1        1N4d0         1N4d+1        1N4d+2        1N5d-2        1N5d-1        1N5d0         1N5d+1        1N5d+2    
    6    1N6d-2        1N6d-1        1N6d0         1N6d+1        1N6d+2        1N1f-3        1N1f-2        1N1f-1        1N1f0         1N1f+1    
    7    1N1f+2        1N1f+3        1N2f-3        1N2f-2        1N2f-1        1N2f0         1N2f+1        1N2f+2        1N2f+3        1N3f-3    
    8    1N3f-2        1N3f-1        1N3f0         1N3f+1        1N3f+2        1N3f+3        2H1s          2H2s          2H3s          2H4s      
    9    2H5s          2H1pz         2H1py         2H1px         2H2pz         2H2py         2H2px         2H3pz         2H3py         2H3px     
   10    2H4pz         2H4py         2H4px         2H1d-2        2H1d-1        2H1d0         2H1d+1        2H1d+2        2H2d-2        2H2d-1    
   11    2H2d0         2H2d+1        2H2d+2        2H3d-2        2H3d-1        2H3d0         2H3d+1        2H3d+2        3H1s          3H2s      
   12    3H3s          3H4s          3H5s          3H1pz         3H1py         3H1px         3H2pz         3H2py         3H2px         3H3pz     
   13    3H3py         3H3px         3H4pz         3H4py         3H4px         3H1d-2        3H1d-1        3H1d0         3H1d+1        3H1d+2    
   14    3H2d-2        3H2d-1        3H2d0         3H2d+1        3H2d+2        3H3d-2        3H3d-1        3H3d0         3H3d+1        3H3d+2    
   15    4H1s          4H2s          4H3s          4H4s          4H5s          4H1pz         4H1py         4H1px         4H2pz         4H2py     
   16    4H2px         4H3pz         4H3py         4H3px         4H4pz         4H4py         4H4px         4H1d-2        4H1d-1        4H1d0     
   17    4H1d+1        4H1d+2        4H2d-2        4H2d-1        4H2d0         4H2d+1        4H2d+2        4H3d-2        4H3d-1        4H3d0     
   18    4H3d+1        4H3d+2        5N1s          5N2s          5N3s          5N4s          5N5s          5N6s          5N7s          5N8s      
   19    5N9s          5N10s         5N11s         5N1pz         5N1py         5N1px         5N2pz         5N2py         5N2px         5N3pz     
   20    5N3py         5N3px         5N4pz         5N4py         5N4px         5N5pz         5N5py         5N5px         5N6pz         5N6py     
   21    5N6px         5N7pz         5N7py         5N7px         5N8pz         5N8py         5N8px         5N1d-2        5N1d-1        5N1d0     
   22    5N1d+1        5N1d+2        5N2d-2        5N2d-1        5N2d0         5N2d+1        5N2d+2        5N3d-2        5N3d-1        5N3d0     
   23    5N3d+1        5N3d+2        5N4d-2        5N4d-1        5N4d0         5N4d+1        5N4d+2        5N5d-2        5N5d-1        5N5d0     
   24    5N5d+1        5N5d+2        5N6d-2        5N6d-1        5N6d0         5N6d+1        5N6d+2        5N1f-3        5N1f-2        5N1f-1    
   25    5N1f0         5N1f+1        5N1f+2        5N1f+3        5N2f-3        5N2f-2        5N2f-1        5N2f0         5N2f+1        5N2f+2    
   26    5N2f+3        5N3f-3        5N3f-2        5N3f-1        5N3f0         5N3f+1        5N3f+2        5N3f+3        6H1s          6H2s      
   27    6H3s          6H4s          6H5s          6H1pz         6H1py         6H1px         6H2pz         6H2py         6H2px         6H3pz     
   28    6H3py         6H3px         6H4pz         6H4py         6H4px         6H1d-2        6H1d-1        6H1d0         6H1d+1        6H1d+2    
   29    6H2d-2        6H2d-1        6H2d0         6H2d+1        6H2d+2        6H3d-2        6H3d-1        6H3d0         6H3d+1        6H3d+2    
   30    7H1s          7H2s          7H3s          7H4s          7H5s          7H1pz         7H1py         7H1px         7H2pz         7H2py     
   31    7H2px         7H3pz         7H3py         7H3px         7H4pz         7H4py         7H4px         7H1d-2        7H1d-1        7H1d0     
   32    7H1d+1        7H1d+2        7H2d-2        7H2d-1        7H2d0         7H2d+1        7H2d+2        7H3d-2        7H3d-1        7H3d0     
   33    7H3d+1        7H3d+2        8H1s          8H2s          8H3s          8H4s          8H5s          8H1pz         8H1py         8H1px     
   34    8H2pz         8H2py         8H2px         8H3pz         8H3py         8H3px         8H4pz         8H4py         8H4px         8H1d-2    
   35    8H1d-1        8H1d0         8H1d+1        8H1d+2        8H2d-2        8H2d-1        8H2d0         8H2d+1        8H2d+2        8H3d-2    
   36    8H3d-1        8H3d0         8H3d+1        8H3d+2        9N1s          9N2s          9N3s          9N4s          9N5s          9N6s      
   37    9N7s          9N8s          9N9s          9N10s         9N11s         9N1pz         9N1py         9N1px         9N2pz         9N2py     
   38    9N2px         9N3pz         9N3py         9N3px         9N4pz         9N4py         9N4px         9N5pz         9N5py         9N5px     
   39    9N6pz         9N6py         9N6px         9N7pz         9N7py         9N7px         9N8pz         9N8py         9N8px         9N1d-2    
   40    9N1d-1        9N1d0         9N1d+1        9N1d+2        9N2d-2        9N2d-1        9N2d0         9N2d+1        9N2d+2        9N3d-2    
   41    9N3d-1        9N3d0         9N3d+1        9N3d+2        9N4d-2        9N4d-1        9N4d0         9N4d+1        9N4d+2        9N5d-2    
   42    9N5d-1        9N5d0         9N5d+1        9N5d+2        9N6d-2        9N6d-1        9N6d0         9N6d+1        9N6d+2        9N1f-3    
   43    9N1f-2        9N1f-1        9N1f0         9N1f+1        9N1f+2        9N1f+3        9N2f-3        9N2f-2        9N2f-1        9N2f0     
   44    9N2f+1        9N2f+2        9N2f+3        9N3f-3        9N3f-2        9N3f-1        9N3f0         9N3f+1        9N3f+2        9N3f+3    
   45   10H1s         10H2s         10H3s         10H4s         10H5s         10H1pz        10H1py        10H1px        10H2pz        10H2py     
   46   10H2px        10H3pz        10H3py        10H3px        10H4pz        10H4py        10H4px        10H1d-2       10H1d-1       10H1d0     
   47   10H1d+1       10H1d+2       10H2d-2       10H2d-1       10H2d0        10H2d+1       10H2d+2       10H3d-2       10H3d-1       10H3d0     
   48   10H3d+1       10H3d+2       11H1s         11H2s         11H3s         11H4s         11H5s         11H1pz        11H1py        11H1px     
   49   11H2pz        11H2py        11H2px        11H3pz        11H3py        11H3px        11H4pz        11H4py        11H4px        11H1d-2    
   50   11H1d-1       11H1d0        11H1d+1       11H1d+2       11H2d-2       11H2d-1       11H2d0        11H2d+1       11H2d+2       11H3d-2    
   51   11H3d-1       11H3d0        11H3d+1       11H3d+2       12H1s         12H2s         12H3s         12H4s         12H5s         12H1pz     
   52   12H1py        12H1px        12H2pz        12H2py        12H2px        12H3pz        12H3py        12H3px        12H4pz        12H4py     
   53   12H4px        12H1d-2       12H1d-1       12H1d0        12H1d+1       12H1d+2       12H2d-2       12H2d-1       12H2d0        12H2d+1    
   54   12H2d+2       12H3d-2       12H3d-1       12H3d0        12H3d+1       12H3d+2    
 
 Maximum number of basis functions per shell:   30
 Total number of basis functions:    546
 
 
 Fitting basis set for the correlation calculation:
 
   1  N  aug-cc-pvdz-ri [ 8s 6p 5d 3f | 8s 6p 5d 3f ]
   2  H  aug-cc-pvdz-ri [ 4s 3p 2d | 4s 3p 2d ]
   3  H  aug-cc-pvdz-ri [ 4s 3p 2d | 4s 3p 2d ]
   4  H  aug-cc-pvdz-ri [ 4s 3p 2d | 4s 3p 2d ]
   5  N  aug-cc-pvdz-ri [ 8s 6p 5d 3f | 8s 6p 5d 3f ]
   6  H  aug-cc-pvdz-ri [ 4s 3p 2d | 4s 3p 2d ]
   7  H  aug-cc-pvdz-ri [ 4s 3p 2d | 4s 3p 2d ]
   8  H  aug-cc-pvdz-ri [ 4s 3p 2d | 4s 3p 2d ]
   9  N  aug-cc-pvdz-ri [ 8s 6p 5d 3f | 8s 6p 5d 3f ]
  10  H  aug-cc-pvdz-ri [ 4s 3p 2d | 4s 3p 2d ]
  11  H  aug-cc-pvdz-ri [ 4s 3p 2d | 4s 3p 2d ]
  12  H  aug-cc-pvdz-ri [ 4s 3p 2d | 4s 3p 2d ]
 
 Basis functions:
            1             2             3             4             5             6             7             8             9            10
    0    1N1s          1N2s          1N3s          1N4s          1N5s          1N6s          1N7s          1N8s          1N1pz         1N1py     
    1    1N1px         1N2pz         1N2py         1N2px         1N3pz         1N3py         1N3px         1N4pz         1N4py         1N4px     
    2    1N5pz         1N5py         1N5px         1N6pz         1N6py         1N6px         1N1d-2        1N1d-1        1N1d0         1N1d+1    
    3    1N1d+2        1N2d-2        1N2d-1        1N2d0         1N2d+1        1N2d+2        1N3d-2        1N3d-1        1N3d0         1N3d+1    
    4    1N3d+2        1N4d-2        1N4d-1        1N4d0         1N4d+1        1N4d+2        1N5d-2        1N5d-1        1N5d0         1N5d+1    
    5    1N5d+2        1N1f-3        1N1f-2        1N1f-1        1N1f0         1N1f+1        1N1f+2        1N1f+3        1N2f-3        1N2f-2    
    6    1N2f-1        1N2f0         1N2f+1        1N2f+2        1N2f+3        1N3f-3        1N3f-2        1N3f-1        1N3f0         1N3f+1    
    7    1N3f+2        1N3f+3        2H1s          2H2s          2H3s          2H4s          2H1pz         2H1py         2H1px         2H2pz     
    8    2H2py         2H2px         2H3pz         2H3py         2H3px         2H1d-2        2H1d-1        2H1d0         2H1d+1        2H1d+2    
    9    2H2d-2        2H2d-1        2H2d0         2H2d+1        2H2d+2        3H1s          3H2s          3H3s          3H4s          3H1pz     
   10    3H1py         3H1px         3H2pz         3H2py         3H2px         3H3pz         3H3py         3H3px         3H1d-2        3H1d-1    
   11    3H1d0         3H1d+1        3H1d+2        3H2d-2        3H2d-1        3H2d0         3H2d+1        3H2d+2        4H1s          4H2s      
   12    4H3s          4H4s          4H1pz         4H1py         4H1px         4H2pz         4H2py         4H2px         4H3pz         4H3py     
   13    4H3px         4H1d-2        4H1d-1        4H1d0         4H1d+1        4H1d+2        4H2d-2        4H2d-1        4H2d0         4H2d+1    
   14    4H2d+2        5N1s          5N2s          5N3s          5N4s          5N5s          5N6s          5N7s          5N8s          5N1pz     
   15    5N1py         5N1px         5N2pz         5N2py         5N2px         5N3pz         5N3py         5N3px         5N4pz         5N4py     
   16    5N4px         5N5pz         5N5py         5N5px         5N6pz         5N6py         5N6px         5N1d-2        5N1d-1        5N1d0     
   17    5N1d+1        5N1d+2        5N2d-2        5N2d-1        5N2d0         5N2d+1        5N2d+2        5N3d-2        5N3d-1        5N3d0     
   18    5N3d+1        5N3d+2        5N4d-2        5N4d-1        5N4d0         5N4d+1        5N4d+2        5N5d-2        5N5d-1        5N5d0     
   19    5N5d+1        5N5d+2        5N1f-3        5N1f-2        5N1f-1        5N1f0         5N1f+1        5N1f+2        5N1f+3        5N2f-3    
   20    5N2f-2        5N2f-1        5N2f0         5N2f+1        5N2f+2        5N2f+3        5N3f-3        5N3f-2        5N3f-1        5N3f0     
   21    5N3f+1        5N3f+2        5N3f+3        6H1s          6H2s          6H3s          6H4s          6H1pz         6H1py         6H1px     
   22    6H2pz         6H2py         6H2px         6H3pz         6H3py         6H3px         6H1d-2        6H1d-1        6H1d0         6H1d+1    
   23    6H1d+2        6H2d-2        6H2d-1        6H2d0         6H2d+1        6H2d+2        7H1s          7H2s          7H3s          7H4s      
   24    7H1pz         7H1py         7H1px         7H2pz         7H2py         7H2px         7H3pz         7H3py         7H3px         7H1d-2    
   25    7H1d-1        7H1d0         7H1d+1        7H1d+2        7H2d-2        7H2d-1        7H2d0         7H2d+1        7H2d+2        8H1s      
   26    8H2s          8H3s          8H4s          8H1pz         8H1py         8H1px         8H2pz         8H2py         8H2px         8H3pz     
   27    8H3py         8H3px         8H1d-2        8H1d-1        8H1d0         8H1d+1        8H1d+2        8H2d-2        8H2d-1        8H2d0     
   28    8H2d+1        8H2d+2        9N1s          9N2s          9N3s          9N4s          9N5s          9N6s          9N7s          9N8s      
   29    9N1pz         9N1py         9N1px         9N2pz         9N2py         9N2px         9N3pz         9N3py         9N3px         9N4pz     
   30    9N4py         9N4px         9N5pz         9N5py         9N5px         9N6pz         9N6py         9N6px         9N1d-2        9N1d-1    
   31    9N1d0         9N1d+1        9N1d+2        9N2d-2        9N2d-1        9N2d0         9N2d+1        9N2d+2        9N3d-2        9N3d-1    
   32    9N3d0         9N3d+1        9N3d+2        9N4d-2        9N4d-1        9N4d0         9N4d+1        9N4d+2        9N5d-2        9N5d-1    
   33    9N5d0         9N5d+1        9N5d+2        9N1f-3        9N1f-2        9N1f-1        9N1f0         9N1f+1        9N1f+2        9N1f+3    
   34    9N2f-3        9N2f-2        9N2f-1        9N2f0         9N2f+1        9N2f+2        9N2f+3        9N3f-3        9N3f-2        9N3f-1    
   35    9N3f0         9N3f+1        9N3f+2        9N3f+3       10H1s         10H2s         10H3s         10H4s         10H1pz        10H1py     
   36   10H1px        10H2pz        10H2py        10H2px        10H3pz        10H3py        10H3px        10H1d-2       10H1d-1       10H1d0     
   37   10H1d+1       10H1d+2       10H2d-2       10H2d-1       10H2d0        10H2d+1       10H2d+2       11H1s         11H2s         11H3s      
   38   11H4s         11H1pz        11H1py        11H1px        11H2pz        11H2py        11H2px        11H3pz        11H3py        11H3px     
   39   11H1d-2       11H1d-1       11H1d0        11H1d+1       11H1d+2       11H2d-2       11H2d-1       11H2d0        11H2d+1       11H2d+2    
   40   12H1s         12H2s         12H3s         12H4s         12H1pz        12H1py        12H1px        12H2pz        12H2py        12H2px     
   41   12H3pz        12H3py        12H3px        12H1d-2       12H1d-1       12H1d0        12H1d+1       12H1d+2       12H2d-2       12H2d-1    
   42   12H2d0        12H2d+1       12H2d+2    
 
 Maximum number of basis functions per shell:   30
 Total number of basis functions:    423
 
 
 Old basis set for SCF restart
 
   1  N  def2-svp [ 7s 4p 1d | 3s 2p 1d ]
   2  H  def2-svp [ 4s 1p | 2s 1p ]
   3  H  def2-svp [ 4s 1p | 2s 1p ]
   4  H  def2-svp [ 4s 1p | 2s 1p ]
   5  N  def2-svp [ 7s 4p 1d | 3s 2p 1d ]
   6  H  def2-svp [ 4s 1p | 2s 1p ]
   7  H  def2-svp [ 4s 1p | 2s 1p ]
   8  H  def2-svp [ 4s 1p | 2s 1p ]
   9  N  def2-svp [ 7s 4p 1d | 3s 2p 1d ]
  10  H  def2-svp [ 4s 1p | 2s 1p ]
  11  H  def2-svp [ 4s 1p | 2s 1p ]
  12  H  def2-svp [ 4s 1p | 2s 1p ]
 
 Basis functions:
            1             2             3             4             5             6             7             8             9            10
    0    1N1s          1N2s          1N3s          1N1pz         1N1py         1N1px         1N2pz         1N2py         1N2px         1N1d-2    
    1    1N1d-1        1N1d0         1N1d+1        1N1d+2        2H1s          2H2s          2H1pz         2H1py         2H1px         3H1s      
    2    3H2s          3H1pz         3H1py         3H1px         4H1s          4H2s          4H1pz         4H1py         4H1px         5N1s      
    3    5N2s          5N3s          5N1pz         5N1py         5N1px         5N2pz         5N2py         5N2px         5N1d-2        5N1d-1    
    4    5N1d0         5N1d+1        5N1d+2        6H1s          6H2s          6H1pz         6H1py         6H1px         7H1s          7H2s      
    5    7H1pz         7H1py         7H1px         8H1s          8H2s          8H1pz         8H1py         8H1px         9N1s          9N2s      
    6    9N3s          9N1pz         9N1py         9N1px         9N2pz         9N2py         9N2px         9N1d-2        9N1d-1        9N1d0     
    7    9N1d+1        9N1d+2       10H1s         10H2s         10H1pz        10H1py        10H1px        11H1s         11H2s         11H1pz     
    8   11H1py        11H1px        12H1s         12H2s         12H1pz        12H1py        12H1px     
 
 Maximum number of basis functions per shell:   30
 Total number of basis functions:     87
 
 
 Character table for point group C1:
 
          E  
    A     1
 
 Number of basis functions per irrep:
    A     150
 
 
 Calculation of overlap integrals...
 CPU time [min]:     0.185                   Wall time [min]:     0.005
 
 Calculation of the square root of the overlap matrix...
 Minimum eigenvalue of the overlap matrix: 0.126486E-02
 CPU time [min]:     0.199                   Wall time [min]:     0.005
 
 Calculation of kinetic energy integrals...
 CPU time [min]:     0.201                   Wall time [min]:     0.005
 Calculation of dipole moment integrals...
 CPU time [min]:     0.203                   Wall time [min]:     0.006
 Calculation of nuclear attraction integrals...
 CPU time [min]:     0.204                   Wall time [min]:     0.006
 Calculation of overlap integrals...
 CPU time [min]:     0.206                   Wall time [min]:     0.006
 
 Calculation of prescreening integrals...
 CPU time [min]:     0.273                   Wall time [min]:     0.007
 
 Calculation of two-center Coulomb integrals...
   1% done.
  13% done.
  24% done.
  37% done.
  53% done.
  68% done.
  80% done.
  95% done.
 100% done.
 CPU time [min]:     0.285                   Wall time [min]:     0.007
 
 Cholesky decomposition of the two-center matrix...
 Reciprocal of the condition number:  0.106610E-04
 CPU time [min]:     0.301                   Wall time [min]:     0.007
 

 ************************ 2026-02-26 23:17:13 *************************
 Executing scf...

 @scfsetup: integrals calculated directly
            mrcc/integ direct run
 @scfsetup: calculating on full matrices
            not using symmetry adapted basis
 @scfsetup: diis switched on
 @scfsetup: number of steps to extrapolate from  10
 @scfsetup: tolerance in energy deviation    0.100000E-07
            tolerance in density deviation    0.100000E-08
 @scfsetup: maximum number of iterations: 200
 @scfsetup: restricted closed shell hf calc
 @scfsetup: restarting scf from SCFDENSITIES file
 @scfsetup: occupation set:
            from initial orbitals
 @scfsetup: Parameter-set for SCF acceleration: normal
 @scfsetup: diis runs from iteration:   2
 @scfsetup: diis runs to iteration: 200
 @scfsetup: diis runs in every iteration
 @scfsetup: diiswatch is disabled                   
 @scfsetup: diis dtol criteria to switch on:      0.0000E+00
           (or the iteration number below is reached)
 @scfsetup: static damping scheme
            iteration step criteria to turn damping off: 3
 @scfsetup: dynamic level shifting
            tolarance in HOMO-LUMO gap:  0.200
            tolarance in density deviation:     0.0000E+00
            iteration step criteria to turn level shifting off: 8
 Allocation of 46.0 Gbytes of memory...
 ======================================================================
 ITERATION STEP   1
 CPU time [min]:     0.028                   Wall time [min]:     0.009
 

 SCF control                  : initial
 Damping factor/level shift   : 0.000/0.200
 DIIS [start/end/frequency]   :   2 /200 /  1

 Constructing Fock-matrix...
 Inverse square root: The matrix is not positive definite!
 
 Pipek-Mezey localization...
 Step  Convergence
   1   1.081685983574
   2   0.359378783579
   3   0.018720766091
   4   0.001146814823
   5   0.000130955881
   6   0.000017222245
   7   0.000002347238
   8   0.000000324048
   9   0.000000044828
  10   0.000000006210
 CPU time [min]:     0.056                   Wall time [min]:     0.009
 
 Constructing local fitting domains...
 Maximum number of atoms in fitting domains:   12
 Average number of atoms in fitting domains:   10.6
 
 First step of Coulomb + first step of exchange...
 Exchange contribution is evaluated for MOs 1 to 5.
   1% done.
  13% done.
  24% done.
  37% done.
  48% done.
  67% done.
  78% done.
  92% done.
 100% done.
 Fitting and assembly step of exchange...
 CPU time [min]:     0.191                   Wall time [min]:     0.012
 
 Second step of Coulomb...
   1% done.
  13% done.
  24% done.
  37% done.
  48% done.
  67% done.
  78% done.
  92% done.
 100% done.
 CPU time [min]:     0.221                   Wall time [min]:     0.012
 
 Gradient norm:      1.1920E-01
 RMS of [F,P]:                                         0.00189746259416
 RMS of difference density:                            0.00545293600707
 Gap [au]:  0.44610330
 ALPHA OCC:   5
 BETA  OCC:   5
 
 ***HARTREE-FOCK ENERGY IN STEP   1 IS        -56.1927809503295705 [AU]
 ======================================================================
 ITERATION STEP   2
 CPU time [min]:     0.242                   Wall time [min]:     0.012
 

 SCF control                  : diis
 Damping factor/level shift   : 0.000/0.000
 DIIS [start/end/frequency]   :   2 /200 /  1

 Constructing Fock-matrix...
 
 Pipek-Mezey localization...
 Step  Convergence
   1   0.000181681009
   2   0.000022437682
   3   0.000003018633
   4   0.000000408109
   5   0.000000055181
   6   0.000000007461
 CPU time [min]:     0.267                   Wall time [min]:     0.013
 
 Constructing local fitting domains...
 Maximum number of atoms in fitting domains:   12
 Average number of atoms in fitting domains:   11.0
 
 First step of Coulomb + first step of exchange...
 Exchange contribution is evaluated for MOs 1 to 5.
   1% done.
  13% done.
  24% done.
  37% done.
  48% done.
  67% done.
  78% done.
  92% done.
 100% done.
 Fitting and assembly step of exchange...
 CPU time [min]:     0.371                   Wall time [min]:     0.014
 
 Second step of Coulomb...
   1% done.
  13% done.
  24% done.
  37% done.
  48% done.
  67% done.
  78% done.
  92% done.
 100% done.
 CPU time [min]:     0.401                   Wall time [min]:     0.015
 
 Gradient norm:      2.0879E-02
 DIIS is running in this iteration step.
 RMS of [F,P]:                                         0.00033622089498
 RMS of difference density:                            0.00078622695240
 Gap [au]:  0.45057530
 ALPHA OCC:   5
 BETA  OCC:   5
 
 ***HARTREE-FOCK ENERGY IN STEP   2 IS        -56.2034147665348414 [AU]
 
 Step comparison  Energy Drift [au]  DIIS error drift  Gradient drift
        1            1.0634E-02         1.5612E-03       9.8324E-02
        2            5.6203E+01         1.0000E-09       9.8324E-02
 ======================================================================
 ITERATION STEP   3
 CPU time [min]:     0.422                   Wall time [min]:     0.015
 

 SCF control                  : diis
 Damping factor/level shift   : 0.000/0.000
 DIIS [start/end/frequency]   :   2 /200 /  1

 Constructing Fock-matrix...
 
 Pipek-Mezey localization...
 Step  Convergence
   1   0.010021653679
   2   0.009982167815
   3   0.000045029973
   4   0.000001286367
   5   0.000000067105
   6   0.000000004773
 CPU time [min]:     0.447                   Wall time [min]:     0.016
 
 Constructing local fitting domains...
 Local fitting domains are unchanged.
 
 First step of Coulomb + first step of exchange...
 Exchange contribution is evaluated for MOs 1 to 5.
   1% done.
  13% done.
  24% done.
  37% done.
  48% done.
  67% done.
  78% done.
  92% done.
 100% done.
 Fitting and assembly step of exchange...
 CPU time [min]:     0.549                   Wall time [min]:     0.017
 
 Second step of Coulomb...
   1% done.
  13% done.
  24% done.
  37% done.
  48% done.
  67% done.
  78% done.
  92% done.
 100% done.
 CPU time [min]:     0.579                   Wall time [min]:     0.018
 
 Gradient norm:      7.6583E-03
 DIIS is running in this iteration step.
 RMS of [F,P]:                                         0.00011485949402
 RMS of difference density:                            0.00028301993759
 Gap [au]:  0.45115709
 ALPHA OCC:   5
 BETA  OCC:   5
 
 ***HARTREE-FOCK ENERGY IN STEP   3 IS        -56.2042567212529320 [AU]
 
 Step comparison  Energy Drift [au]  DIIS error drift  Gradient drift
        2            8.4195E-04         2.2136E-04       1.3221E-02
 ======================================================================
 ITERATION STEP   4
 CPU time [min]:     0.600                   Wall time [min]:     0.018
 

 SCF control                  : diis
 Damping factor/level shift   : 0.000/0.000
 DIIS [start/end/frequency]   :   2 /200 /  1

 Constructing Fock-matrix...
 
 Pipek-Mezey localization...
 Step  Convergence
   1   0.019977868021
   2   0.022604286154
   3   0.000107231945
   4   0.000001085409
   5   0.000000061611
   6   0.000000006414
 CPU time [min]:     0.625                   Wall time [min]:     0.019
 
 Constructing local fitting domains...
 Local fitting domains are unchanged.
 
 First step of Coulomb + first step of exchange...
 Exchange contribution is evaluated for MOs 1 to 5.
   1% done.
  13% done.
  24% done.
  37% done.
  48% done.
  67% done.
  78% done.
  92% done.
 100% done.
 Fitting and assembly step of exchange...
 CPU time [min]:     0.726                   Wall time [min]:     0.020
 
 Second step of Coulomb...
   1% done.
  13% done.
  24% done.
  37% done.
  48% done.
  67% done.
  78% done.
  92% done.
 100% done.
 CPU time [min]:     0.756                   Wall time [min]:     0.021
 
 Gradient norm:      3.1111E-03
 DIIS is running in this iteration step.
 RMS of [F,P]:                                         0.00002956286975
 RMS of difference density:                            0.00006880149301
 Gap [au]:  0.44968401
 ALPHA OCC:   5
 BETA  OCC:   5
 
 ***HARTREE-FOCK ENERGY IN STEP   4 IS        -56.2043947000407655 [AU]
 
 Step comparison  Energy Drift [au]  DIIS error drift  Gradient drift
[...]
 
 
 Fitting basis set for the SCF calculation:
 
   1  N  aug-cc-pvdz-ri-jk [ 11s 8p 6d 3f | 11s 8p 6d 3f ]
   2  H  aug-cc-pvdz-ri-jk [ 5s 4p 3d | 5s 4p 3d ]
   3  H  aug-cc-pvdz-ri-jk [ 5s 4p 3d | 5s 4p 3d ]
   4  H  aug-cc-pvdz-ri-jk [ 5s 4p 3d | 5s 4p 3d ]
   5  N  aug-cc-pvdz-ri-jk [ 11s 8p 6d 3f | 11s 8p 6d 3f ]
   6  H  aug-cc-pvdz-ri-jk [ 5s 4p 3d | 5s 4p 3d ]
   7  H  aug-cc-pvdz-ri-jk [ 5s 4p 3d | 5s 4p 3d ]
   8  H  aug-cc-pvdz-ri-jk [ 5s 4p 3d | 5s 4p 3d ]
   9  N  aug-cc-pvdz-ri-jk [ 11s 8p 6d 3f | 11s 8p 6d 3f ]
  10  H  aug-cc-pvdz-ri-jk [ 5s 4p 3d | 5s 4p 3d ]
  11  H  aug-cc-pvdz-ri-jk [ 5s 4p 3d | 5s 4p 3d ]
  12  H  aug-cc-pvdz-ri-jk [ 5s 4p 3d | 5s 4p 3d ]
 
 Basis functions:
            1             2             3             4             5             6             7             8             9            10
    0    1N1s          1N2s          1N3s          1N4s          1N5s          1N6s          1N7s          1N8s          1N9s          1N10s     
    1    1N11s         1N1pz         1N1py         1N1px         1N2pz         1N2py         1N2px         1N3pz         1N3py         1N3px     
    2    1N4pz         1N4py         1N4px         1N5pz         1N5py         1N5px         1N6pz         1N6py         1N6px         1N7pz     
    3    1N7py         1N7px         1N8pz         1N8py         1N8px         1N1d-2        1N1d-1        1N1d0         1N1d+1        1N1d+2    
    4    1N2d-2        1N2d-1        1N2d0         1N2d+1        1N2d+2        1N3d-2        1N3d-1        1N3d0         1N3d+1        1N3d+2    
    5    1N4d-2        1N4d-1        1N4d0         1N4d+1        1N4d+2        1N5d-2        1N5d-1        1N5d0         1N5d+1        1N5d+2    
    6    1N6d-2        1N6d-1        1N6d0         1N6d+1        1N6d+2        1N1f-3        1N1f-2        1N1f-1        1N1f0         1N1f+1    
    7    1N1f+2        1N1f+3        1N2f-3        1N2f-2        1N2f-1        1N2f0         1N2f+1        1N2f+2        1N2f+3        1N3f-3    
    8    1N3f-2        1N3f-1        1N3f0         1N3f+1        1N3f+2        1N3f+3        2H1s          2H2s          2H3s          2H4s      
    9    2H5s          2H1pz         2H1py         2H1px         2H2pz         2H2py         2H2px         2H3pz         2H3py         2H3px     
   10    2H4pz         2H4py         2H4px         2H1d-2        2H1d-1        2H1d0         2H1d+1        2H1d+2        2H2d-2        2H2d-1    
   11    2H2d0         2H2d+1        2H2d+2        2H3d-2        2H3d-1        2H3d0         2H3d+1        2H3d+2        3H1s          3H2s      
   12    3H3s          3H4s          3H5s          3H1pz         3H1py         3H1px         3H2pz         3H2py         3H2px         3H3pz     
   13    3H3py         3H3px         3H4pz         3H4py         3H4px         3H1d-2        3H1d-1        3H1d0         3H1d+1        3H1d+2    
   14    3H2d-2        3H2d-1        3H2d0         3H2d+1        3H2d+2        3H3d-2        3H3d-1        3H3d0         3H3d+1        3H3d+2    
   15    4H1s          4H2s          4H3s          4H4s          4H5s          4H1pz         4H1py         4H1px         4H2pz         4H2py     
   16    4H2px         4H3pz         4H3py         4H3px         4H4pz         4H4py         4H4px         4H1d-2        4H1d-1        4H1d0     
   17    4H1d+1        4H1d+2        4H2d-2        4H2d-1        4H2d0         4H2d+1        4H2d+2        4H3d-2        4H3d-1        4H3d0     
   18    4H3d+1        4H3d+2        5N1s          5N2s          5N3s          5N4s          5N5s          5N6s          5N7s          5N8s      
   19    5N9s          5N10s         5N11s         5N1pz         5N1py         5N1px         5N2pz         5N2py         5N2px         5N3pz     
   20    5N3py         5N3px         5N4pz         5N4py         5N4px         5N5pz         5N5py         5N5px         5N6pz         5N6py     
   21    5N6px         5N7pz         5N7py         5N7px         5N8pz         5N8py         5N8px         5N1d-2        5N1d-1        5N1d0     
   22    5N1d+1        5N1d+2        5N2d-2        5N2d-1        5N2d0         5N2d+1        5N2d+2        5N3d-2        5N3d-1        5N3d0     
   23    5N3d+1        5N3d+2        5N4d-2        5N4d-1        5N4d0         5N4d+1        5N4d+2        5N5d-2        5N5d-1        5N5d0     
   24    5N5d+1        5N5d+2        5N6d-2        5N6d-1        5N6d0         5N6d+1        5N6d+2        5N1f-3        5N1f-2        5N1f-1    
   25    5N1f0         5N1f+1        5N1f+2        5N1f+3        5N2f-3        5N2f-2        5N2f-1        5N2f0         5N2f+1        5N2f+2    
   26    5N2f+3        5N3f-3        5N3f-2        5N3f-1        5N3f0         5N3f+1        5N3f+2        5N3f+3        6H1s          6H2s      
   27    6H3s          6H4s          6H5s          6H1pz         6H1py         6H1px         6H2pz         6H2py         6H2px         6H3pz     
   28    6H3py         6H3px         6H4pz         6H4py         6H4px         6H1d-2        6H1d-1        6H1d0         6H1d+1        6H1d+2    
   29    6H2d-2        6H2d-1        6H2d0         6H2d+1        6H2d+2        6H3d-2        6H3d-1        6H3d0         6H3d+1        6H3d+2    
   30    7H1s          7H2s          7H3s          7H4s          7H5s          7H1pz         7H1py         7H1px         7H2pz         7H2py     
   31    7H2px         7H3pz         7H3py         7H3px         7H4pz         7H4py         7H4px         7H1d-2        7H1d-1        7H1d0     
   32    7H1d+1        7H1d+2        7H2d-2        7H2d-1        7H2d0         7H2d+1        7H2d+2        7H3d-2        7H3d-1        7H3d0     
   33    7H3d+1        7H3d+2        8H1s          8H2s          8H3s          8H4s          8H5s          8H1pz         8H1py         8H1px     
   34    8H2pz         8H2py         8H2px         8H3pz         8H3py         8H3px         8H4pz         8H4py         8H4px         8H1d-2    
   35    8H1d-1        8H1d0         8H1d+1        8H1d+2        8H2d-2        8H2d-1        8H2d0         8H2d+1        8H2d+2        8H3d-2    
   36    8H3d-1        8H3d0         8H3d+1        8H3d+2        9N1s          9N2s          9N3s          9N4s          9N5s          9N6s      
   37    9N7s          9N8s          9N9s          9N10s         9N11s         9N1pz         9N1py         9N1px         9N2pz         9N2py     
   38    9N2px         9N3pz         9N3py         9N3px         9N4pz         9N4py         9N4px         9N5pz         9N5py         9N5px     
   39    9N6pz         9N6py         9N6px         9N7pz         9N7py         9N7px         9N8pz         9N8py         9N8px         9N1d-2    
   40    9N1d-1        9N1d0         9N1d+1        9N1d+2        9N2d-2        9N2d-1        9N2d0         9N2d+1        9N2d+2        9N3d-2    
   41    9N3d-1        9N3d0         9N3d+1        9N3d+2        9N4d-2        9N4d-1        9N4d0         9N4d+1        9N4d+2        9N5d-2    
   42    9N5d-1        9N5d0         9N5d+1        9N5d+2        9N6d-2        9N6d-1        9N6d0         9N6d+1        9N6d+2        9N1f-3    
   43    9N1f-2        9N1f-1        9N1f0         9N1f+1        9N1f+2        9N1f+3        9N2f-3        9N2f-2        9N2f-1        9N2f0     
   44    9N2f+1        9N2f+2        9N2f+3        9N3f-3        9N3f-2        9N3f-1        9N3f0         9N3f+1        9N3f+2        9N3f+3    
   45   10H1s         10H2s         10H3s         10H4s         10H5s         10H1pz        10H1py        10H1px        10H2pz        10H2py     
   46   10H2px        10H3pz        10H3py        10H3px        10H4pz        10H4py        10H4px        10H1d-2       10H1d-1       10H1d0     
   47   10H1d+1       10H1d+2       10H2d-2       10H2d-1       10H2d0        10H2d+1       10H2d+2       10H3d-2       10H3d-1       10H3d0     
   48   10H3d+1       10H3d+2       11H1s         11H2s         11H3s         11H4s         11H5s         11H1pz        11H1py        11H1px     
   49   11H2pz        11H2py        11H2px        11H3pz        11H3py        11H3px        11H4pz        11H4py        11H4px        11H1d-2    
   50   11H1d-1       11H1d0        11H1d+1       11H1d+2       11H2d-2       11H2d-1       11H2d0        11H2d+1       11H2d+2       11H3d-2    
   51   11H3d-1       11H3d0        11H3d+1       11H3d+2       12H1s         12H2s         12H3s         12H4s         12H5s         12H1pz     
   52   12H1py        12H1px        12H2pz        12H2py        12H2px        12H3pz        12H3py        12H3px        12H4pz        12H4py     
   53   12H4px        12H1d-2       12H1d-1       12H1d0        12H1d+1       12H1d+2       12H2d-2       12H2d-1       12H2d0        12H2d+1    
   54   12H2d+2       12H3d-2       12H3d-1       12H3d0        12H3d+1       12H3d+2    
 
 Maximum number of basis functions per shell:   30
 Total number of basis functions:    546
 
 
 Fitting basis set for the correlation calculation:
 
   1  N  aug-cc-pvdz-ri [ 8s 6p 5d 3f | 8s 6p 5d 3f ]
   2  H  aug-cc-pvdz-ri [ 4s 3p 2d | 4s 3p 2d ]
   3  H  aug-cc-pvdz-ri [ 4s 3p 2d | 4s 3p 2d ]
   4  H  aug-cc-pvdz-ri [ 4s 3p 2d | 4s 3p 2d ]
   5  N  aug-cc-pvdz-ri [ 8s 6p 5d 3f | 8s 6p 5d 3f ]
   6  H  aug-cc-pvdz-ri [ 4s 3p 2d | 4s 3p 2d ]
   7  H  aug-cc-pvdz-ri [ 4s 3p 2d | 4s 3p 2d ]
   8  H  aug-cc-pvdz-ri [ 4s 3p 2d | 4s 3p 2d ]
   9  N  aug-cc-pvdz-ri [ 8s 6p 5d 3f | 8s 6p 5d 3f ]
  10  H  aug-cc-pvdz-ri [ 4s 3p 2d | 4s 3p 2d ]
  11  H  aug-cc-pvdz-ri [ 4s 3p 2d | 4s 3p 2d ]
  12  H  aug-cc-pvdz-ri [ 4s 3p 2d | 4s 3p 2d ]
 
 Basis functions:
            1             2             3             4             5             6             7             8             9            10
    0    1N1s          1N2s          1N3s          1N4s          1N5s          1N6s          1N7s          1N8s          1N1pz         1N1py     
    1    1N1px         1N2pz         1N2py         1N2px         1N3pz         1N3py         1N3px         1N4pz         1N4py         1N4px     
    2    1N5pz         1N5py         1N5px         1N6pz         1N6py         1N6px         1N1d-2        1N1d-1        1N1d0         1N1d+1    
    3    1N1d+2        1N2d-2        1N2d-1        1N2d0         1N2d+1        1N2d+2        1N3d-2        1N3d-1        1N3d0         1N3d+1    
    4    1N3d+2        1N4d-2        1N4d-1        1N4d0         1N4d+1        1N4d+2        1N5d-2        1N5d-1        1N5d0         1N5d+1    
    5    1N5d+2        1N1f-3        1N1f-2        1N1f-1        1N1f0         1N1f+1        1N1f+2        1N1f+3        1N2f-3        1N2f-2    
    6    1N2f-1        1N2f0         1N2f+1        1N2f+2        1N2f+3        1N3f-3        1N3f-2        1N3f-1        1N3f0         1N3f+1    
    7    1N3f+2        1N3f+3        2H1s          2H2s          2H3s          2H4s          2H1pz         2H1py         2H1px         2H2pz     
    8    2H2py         2H2px         2H3pz         2H3py         2H3px         2H1d-2        2H1d-1        2H1d0         2H1d+1        2H1d+2    
    9    2H2d-2        2H2d-1        2H2d0         2H2d+1        2H2d+2        3H1s          3H2s          3H3s          3H4s          3H1pz     
   10    3H1py         3H1px         3H2pz         3H2py         3H2px         3H3pz         3H3py         3H3px         3H1d-2        3H1d-1    
   11    3H1d0         3H1d+1        3H1d+2        3H2d-2        3H2d-1        3H2d0         3H2d+1        3H2d+2        4H1s          4H2s      
   12    4H3s          4H4s          4H1pz         4H1py         4H1px         4H2pz         4H2py         4H2px         4H3pz         4H3py     
   13    4H3px         4H1d-2        4H1d-1        4H1d0         4H1d+1        4H1d+2        4H2d-2        4H2d-1        4H2d0         4H2d+1    
   14    4H2d+2        5N1s          5N2s          5N3s          5N4s          5N5s          5N6s          5N7s          5N8s          5N1pz     
   15    5N1py         5N1px         5N2pz         5N2py         5N2px         5N3pz         5N3py         5N3px         5N4pz         5N4py     
   16    5N4px         5N5pz         5N5py         5N5px         5N6pz         5N6py         5N6px         5N1d-2        5N1d-1        5N1d0     
   17    5N1d+1        5N1d+2        5N2d-2        5N2d-1        5N2d0         5N2d+1        5N2d+2        5N3d-2        5N3d-1        5N3d0     
   18    5N3d+1        5N3d+2        5N4d-2        5N4d-1        5N4d0         5N4d+1        5N4d+2        5N5d-2        5N5d-1        5N5d0     
   19    5N5d+1        5N5d+2        5N1f-3        5N1f-2        5N1f-1        5N1f0         5N1f+1        5N1f+2        5N1f+3        5N2f-3    
   20    5N2f-2        5N2f-1        5N2f0         5N2f+1        5N2f+2        5N2f+3        5N3f-3        5N3f-2        5N3f-1        5N3f0     
   21    5N3f+1        5N3f+2        5N3f+3        6H1s          6H2s          6H3s          6H4s          6H1pz         6H1py         6H1px     
   22    6H2pz         6H2py         6H2px         6H3pz         6H3py         6H3px         6H1d-2        6H1d-1        6H1d0         6H1d+1    
   23    6H1d+2        6H2d-2        6H2d-1        6H2d0         6H2d+1        6H2d+2        7H1s          7H2s          7H3s          7H4s      
   24    7H1pz         7H1py         7H1px         7H2pz         7H2py         7H2px         7H3pz         7H3py         7H3px         7H1d-2    
   25    7H1d-1        7H1d0         7H1d+1        7H1d+2        7H2d-2        7H2d-1        7H2d0         7H2d+1        7H2d+2        8H1s      
   26    8H2s          8H3s          8H4s          8H1pz         8H1py         8H1px         8H2pz         8H2py         8H2px         8H3pz     
   27    8H3py         8H3px         8H1d-2        8H1d-1        8H1d0         8H1d+1        8H1d+2        8H2d-2        8H2d-1        8H2d0     
   28    8H2d+1        8H2d+2        9N1s          9N2s          9N3s          9N4s          9N5s          9N6s          9N7s          9N8s      
   29    9N1pz         9N1py         9N1px         9N2pz         9N2py         9N2px         9N3pz         9N3py         9N3px         9N4pz     
   30    9N4py         9N4px         9N5pz         9N5py         9N5px         9N6pz         9N6py         9N6px         9N1d-2        9N1d-1    
   31    9N1d0         9N1d+1        9N1d+2        9N2d-2        9N2d-1        9N2d0         9N2d+1        9N2d+2        9N3d-2        9N3d-1    
   32    9N3d0         9N3d+1        9N3d+2        9N4d-2        9N4d-1        9N4d0         9N4d+1        9N4d+2        9N5d-2        9N5d-1    
   33    9N5d0         9N5d+1        9N5d+2        9N1f-3        9N1f-2        9N1f-1        9N1f0         9N1f+1        9N1f+2        9N1f+3    
   34    9N2f-3        9N2f-2        9N2f-1        9N2f0         9N2f+1        9N2f+2        9N2f+3        9N3f-3        9N3f-2        9N3f-1    
   35    9N3f0         9N3f+1        9N3f+2        9N3f+3       10H1s         10H2s         10H3s         10H4s         10H1pz        10H1py     
   36   10H1px        10H2pz        10H2py        10H2px        10H3pz        10H3py        10H3px        10H1d-2       10H1d-1       10H1d0     
   37   10H1d+1       10H1d+2       10H2d-2       10H2d-1       10H2d0        10H2d+1       10H2d+2       11H1s         11H2s         11H3s      
   38   11H4s         11H1pz        11H1py        11H1px        11H2pz        11H2py        11H2px        11H3pz        11H3py        11H3px     
   39   11H1d-2       11H1d-1       11H1d0        11H1d+1       11H1d+2       11H2d-2       11H2d-1       11H2d0        11H2d+1       11H2d+2    
   40   12H1s         12H2s         12H3s         12H4s         12H1pz        12H1py        12H1px        12H2pz        12H2py        12H2px     
   41   12H3pz        12H3py        12H3px        12H1d-2       12H1d-1       12H1d0        12H1d+1       12H1d+2       12H2d-2       12H2d-1    
   42   12H2d0        12H2d+1       12H2d+2    
 
 Maximum number of basis functions per shell:   30
 Total number of basis functions:    423
 
 
 Old basis set for SCF restart
 
   1  N  def2-svp [ 7s 4p 1d | 3s 2p 1d ]
   2  H  def2-svp [ 4s 1p | 2s 1p ]
   3  H  def2-svp [ 4s 1p | 2s 1p ]
   4  H  def2-svp [ 4s 1p | 2s 1p ]
   5  N  def2-svp [ 7s 4p 1d | 3s 2p 1d ]
   6  H  def2-svp [ 4s 1p | 2s 1p ]
   7  H  def2-svp [ 4s 1p | 2s 1p ]
   8  H  def2-svp [ 4s 1p | 2s 1p ]
   9  N  def2-svp [ 7s 4p 1d | 3s 2p 1d ]
  10  H  def2-svp [ 4s 1p | 2s 1p ]
  11  H  def2-svp [ 4s 1p | 2s 1p ]
  12  H  def2-svp [ 4s 1p | 2s 1p ]
 
 Basis functions:
            1             2             3             4             5             6             7             8             9            10
    0    1N1s          1N2s          1N3s          1N1pz         1N1py         1N1px         1N2pz         1N2py         1N2px         1N1d-2    
    1    1N1d-1        1N1d0         1N1d+1        1N1d+2        2H1s          2H2s          2H1pz         2H1py         2H1px         3H1s      
    2    3H2s          3H1pz         3H1py         3H1px         4H1s          4H2s          4H1pz         4H1py         4H1px         5N1s      
    3    5N2s          5N3s          5N1pz         5N1py         5N1px         5N2pz         5N2py         5N2px         5N1d-2        5N1d-1    
    4    5N1d0         5N1d+1        5N1d+2        6H1s          6H2s          6H1pz         6H1py         6H1px         7H1s          7H2s      
    5    7H1pz         7H1py         7H1px         8H1s          8H2s          8H1pz         8H1py         8H1px         9N1s          9N2s      
    6    9N3s          9N1pz         9N1py         9N1px         9N2pz         9N2py         9N2px         9N1d-2        9N1d-1        9N1d0     
    7    9N1d+1        9N1d+2       10H1s         10H2s         10H1pz        10H1py        10H1px        11H1s         11H2s         11H1pz     
    8   11H1py        11H1px        12H1s         12H2s         12H1pz        12H1py        12H1px     
 
 Maximum number of basis functions per shell:   30
 Total number of basis functions:     87
 
 
 Calculation of prescreening integrals...
 CPU time [min]:     0.070                   Wall time [min]:     0.005
 
 Calculation of two-center Coulomb integrals...
   1% done.
  12% done.
  25% done.
  38% done.
  53% done.
  70% done.
  81% done.
  95% done.
 100% done.
 CPU time [min]:     0.084                   Wall time [min]:     0.005
 
 Cholesky decomposition of the inverse of the two-center matrix...
 CPU time [min]:     0.105                   Wall time [min]:     0.005
 
 Calculation of three-center Coulomb integrals...
   1% done.
  13% done.
  24% done.
  37% done.
  48% done.
  67% done.
  78% done.
  92% done.
 100% done.
 CPU time [min]:     0.496                   Wall time [min]:     0.012

 ************************ 2026-02-26 23:17:17 *************************
 Executing drpa...

 Three-index integral transformation and DF-MP2 calculation
 Allocation of 46.0 Gbytes of memory...
 
 Minimal memory requirement for (ai|P) integrals:        5.0 MB

 Calculating (ai|P) integrals...
 Number of integral batches:    1
 Occupied indices per batch:    4
 
 Transforming integrals of batch 1...
 CPU time [min]:     0.078                   Wall time [min]:     0.004
 
 
 
 Reference energy [au]:                       -56.204403079804
 DF-MP2 singlet pair energy [au]:              -0.154318181663
 DF-MP2 triplet pair energy [au]:              -0.046382914551
 DF-SCS-MP2 correlation energy [au]:           -0.200642789513
 DF-SCS-MP2 energy [au]:                      -56.405045869316
 DF-SOS-MP2 correlation energy [au]:           -0.200613636162
 DF-SOS-MP2 energy [au]:                      -56.405016715965
 DF-MP2 correlation energy [au]:               -0.200701096214
 DF-MP2 energy [au]:                          -56.405104176018
 
 ************************ 2026-02-26 23:17:18 *************************
                      Normal termination of mrcc.
 **********************************************************************
