 **********************************************************************
                          MRCC program system
 **********************************************************************
 
                              Written by
     Mihaly Kallay, Peter R. Nagy, David Mester, Laszlo Gyevi-Nagy,
        Jozsef Csoka, P. Bernat Szabo, Zoltan Rolik, Gyula Samu,
     Jozsef Csontos, Bence Hegely, Adam Ganyecz, Istvan Ladjanszki,
       Lorant Szegedy, Bence Ladoczki, Klara Petrov, Mate Farkas,
                    Pal D. Mezei, and Reka A. Horvath
 
        Department of Physical Chemistry and Materials Science
            Budapest University of Technology and Economics
                  Budapest P.O.Box 91, H-1521 Hungary
 
                              www.mrcc.hu
 
                     Release date: August 28, 2023

 ************************ 2026-02-26 16:03:49 *************************
 Executing minp...

 Reading input from MINP...
 
 Input file:
 
charge=0
mult=1
calc=DF-MP2
basis=aug-cc-pVQZ
symm=off
verbosity=3
unit=angs
scfalg=locfit1
scfmaxit=200
scftol=8
basis_sm=def2-SVP
scfiguess=small
mem=46GB
geom=xyz
4

N      1.04470516527    1.04467805385    1.04472620470
H      1.86198065727    1.39631551807    0.53263274880
H      1.39638040304    0.53260276511    1.86208371977
H      0.53256262530    1.86191282917    1.39633599251
 
 
 Checking keyword combinations...
 
 Keywords:
 
 active=none
 agrid=ld0006-ld0590
 agrid_pssp=ld0006-ld0194
 agrid_pssp_sm=ld0006-ld0074
 basis=aug-cc-pvqz
 basis_sm=def2-svp
 basopt=off
 bfbasis=none
 bfgsmem=10
 bfgstol=1.0d-3
 boysalg=jacobi
 bpcompo=0.985
 bpcompv=0.98
 bpdfo=0.985
 bpocc=0.985
 bppdo=0.985
 bppdv=0.98
 bpedo=0.985
 bpedv=0.98
 calc=mp2
 ccmaxit=50
 ccprog=mrcc
 ccsdalg=disk
 ccsdmkl=seq
 ccsdrest=off
 ccsdthreads=2
 cctol=6
 charge=0
 cialg=disk
 ciguess=off
 cmpgrp=auto
 comprest=off
 coord_sys=ric
 core=frozen
 corembed=off
 csapprox=off
 cvs=off
 dboc=off
 delocsomofact=
 dendec=cholesky
 dens=0
 denscorr=0
 dfalg=lineq
 dfbasis_cab=none
 dfbasis_cor=auto
 dfbasis_scf=auto
 dfbasis_scf_sm=auto
 dfintran=drpa
 dft=off
 dhexc=adc(2)
 diag=david
 docc=
 domrad=10.d0
 drpaalg=fit
 dual=off
 dual_df=off
 ecp=auto
 edisp=off
 edisp_embed=off
 embed=off
 epairestfact=off
 epairscale=1.d0
 etemp=300
 epert=none
 eps=
 espcharge=off
 excrad=1.0
 excrad_fin=0.100000000D-02
 fitting=coulomb
 fmm=off
 fmmord=8
 fnonorb=
 freq=off
 gamma=1.4d0
 gauss=spher
 geom=xyz
 gopt=off
 ghost=none
 gtol=7
 grdens=off
 grid=auto
 grid_sm=auto
 gridbatch_cos=2000
 grtol=10
 guido_ct=off
 hamilton=dc
 iface=none
 intalg=auto
 ip_ea=off
 itol=12
 laptol=1.d-2
 lccoporder=trffirst
 lcorthr=normal
 lccrest=off
 ldfgrad_tol=8
 lmp2dens=on
 lnoepso=0.d0
 lnoepsv=1e-6
 localcc=off
 localcorrsymm=off
 locintrf=disk
 mact=
 maxact=off
 maxdim=200
 maxex=0
 maxmicroit=100
 mcscfiguess=hf
 mem=46gb
 mmprog=
 molden=on
 mpitasks=1
 mulmet=0
 mult=1
 nab=off
 nacto=0
 nactv=0
 naf_amp=3.16d-3
 naf_cor=off
 naf_f12=off
 naf_scf=off
 nafalg=albe
 nafdens=off
 naftyp=
 nchol=auto
 ndeps=1e-3
 nstate=1
 nsing=0
 nto=off
 ntrip=0
 num_grad=off
 occ=
 occri=off
 oniom=off
 oniom_eechg=off
 oniom_pcm=off
 oniom_qcorr=off
 optalg=
 optmaxit=50
 optetol=1e-6
 optex=0
 optgtol=1e-4
 optstol=1e-3
 orblocc=off
 orbloce=off
 orbloco=off
 orblocv=off
 orblocguess=cholesky
 osveps=1e-3
 ovirt=off
 ovltol=1e-7
 ovosnorb=80.0
 pao_subsys_tol=1e-3
 pcm=off
 popul=off
 pressure=100000
 pssp=off
 ptfreq=0.0
 ptthreads=2
 qmreg=
 qmmm=off
 qro=off
 qscf=off
 redcost_exc=off
 redcost_tddft=off
 refdet=none
 rest=0
 rgrid=log3
 rism=off
 rohfcore=semicanonical
 rohftype=semicanonical
 scfalg=locfit1
 scf_conv=auto
 scfdamp=0.0d0
 scfdamp_mode=off
 scfdamp_end=200
 scfdamp_dampstep=0.d0
 scfdamp_dtol=0.0d0
 scfdamp_maxfact=0.0d0
 scfdamp_minfact=0.0d0
 scfdiis=on
 scfdiis_dtol=0.0d0
 scfdiis_end=200
 scfdiis_start=2
 scfdiis_step=1
 scfdiis_watch=off
 scfdiis_wrange=10
 scfdiis_wlimit=5
 scfdiis_delmax=2
 scfdtol=9
 scfext=10
 scfguessdens=
 scfiguess=small
 scfloc=pm
 scflshift=0.20
 scflshift_end=8
 scflshift_dtol=0.0
 scflshift_gaptol=0.20
 scfmaxit=200
 scftype=
 scftol=8
 scspe=1.d0
 scsph=1.d0
 scsps=1.2d0
 scsps_t=1.2d0
 scspt=0.33333333333333
 scspt_t=0.33333333333333
 scspv=1.d0
 spairtol=1e-4
 sqmprog=
 subminp=top
 symm=0
 talg=occ
 temp=298.15
 test=off
 theodore=off
 tlmo=0.999
 tpao=0.94
 tprint=off
 uncontract=off
 unit=angs
 usedisk=2
 verbosity=3
 wpairtol=0.100000000E-05
 
 Calculating integrals for small-basis SCF...

 ************************ 2026-02-26 16:03:49 *************************
 Executing integ...

 Allocation of 46.0 Gbytes of memory...
 
 
 Number of atoms:                  4
 Charge:                           0
 Number of electrons:             10
 Number of core electrons:         2
 Spin multiplicity:                1
 
                 Cartesian coordinates [bohr]      Atomic mass [AMU]  Z
   1  N     1.97420664    1.97415541    1.97424640    14.003074       7
   2  H     3.51863349    2.63865391    1.00653002     1.007825       1
   3  H     2.63877653    1.00647336    3.51882825     1.007825       1
   4  H     1.00639751    3.51850532    2.63869260     1.007825       1
 
 This molecule is an asymmetric top.
 
 Rotational constants [cm-1]: 
      9.725611553639      9.725262897102      6.126632394896
 
 Point group: C1  
 Computational point group: C1  
 
 Cartesian coordinates in standard orientation [bohr]
   1  N     0.00001974   -0.00000801   -0.12725315
   2  H     1.29159153    1.25758525    0.58939811
   3  H    -1.73502610    0.48986803    0.58928866
   4  H     0.44316034   -1.74734193    0.58941309
 
 Nuclear repulsion energy [au]:         11.785797783990
 
Warning: for H atoms in the case of dfbasis_scf=auto the AO basis is set as dfbasis_scf instead of def2-qzvp(pd)-ri-jk because the AO basis is larger. Set the dfbasis_scf=def2-qzvp(pd)-ri-jk in MINP if that is desired.
 
 
 Basis set information:
 
 Maximum angular momentum: g
 Maximum number of contracted Gaussians:   10
 Maximum number of primitive Gaussians:    14
 Spherical harmonic GTOs are used.
 
 
 Conventional basis set:
 
   1  N  def2-svp [ 7s 4p 1d | 3s 2p 1d ]
   2  H  def2-svp [ 4s 1p | 2s 1p ]
   3  H  def2-svp [ 4s 1p | 2s 1p ]
   4  H  def2-svp [ 4s 1p | 2s 1p ]
 
 Basis functions:
            1             2             3             4             5             6             7             8             9            10
    0    1N1s          1N2s          1N3s          1N1pz         1N1py         1N1px         1N2pz         1N2py         1N2px         1N1d-2    
    1    1N1d-1        1N1d0         1N1d+1        1N1d+2        2H1s          2H2s          2H1pz         2H1py         2H1px         3H1s      
    2    3H2s          3H1pz         3H1py         3H1px         4H1s          4H2s          4H1pz         4H1py         4H1px     
 
 Maximum number of basis functions per shell:    6
 Total number of basis functions:     29
 
 
 Fitting basis set for the SCF calculation:
 
   1  N  def2-qzvpp-ri-jk [ 14s 10p 6d 2f 1g | 10s 8p 4d 2f 1g ]
   2  H  def2-qzvpp [ 7s 3p 2d 1f | 4s 3p 2d 1f ]
   3  H  def2-qzvpp [ 7s 3p 2d 1f | 4s 3p 2d 1f ]
   4  H  def2-qzvpp [ 7s 3p 2d 1f | 4s 3p 2d 1f ]
 
 Basis functions:
            1             2             3             4             5             6             7             8             9            10
    0    1N1s          1N2s          1N3s          1N4s          1N5s          1N6s          1N7s          1N8s          1N9s          1N10s     
    1    1N1pz         1N1py         1N1px         1N2pz         1N2py         1N2px         1N3pz         1N3py         1N3px         1N4pz     
    2    1N4py         1N4px         1N5pz         1N5py         1N5px         1N6pz         1N6py         1N6px         1N7pz         1N7py     
    3    1N7px         1N8pz         1N8py         1N8px         1N1d-2        1N1d-1        1N1d0         1N1d+1        1N1d+2        1N2d-2    
    4    1N2d-1        1N2d0         1N2d+1        1N2d+2        1N3d-2        1N3d-1        1N3d0         1N3d+1        1N3d+2        1N4d-2    
    5    1N4d-1        1N4d0         1N4d+1        1N4d+2        1N1f-3        1N1f-2        1N1f-1        1N1f0         1N1f+1        1N1f+2    
    6    1N1f+3        1N2f-3        1N2f-2        1N2f-1        1N2f0         1N2f+1        1N2f+2        1N2f+3        1N1g-4        1N1g-3    
    7    1N1g-2        1N1g-1        1N1g0         1N1g+1        1N1g+2        1N1g+3        1N1g+4        2H1s          2H2s          2H3s      
    8    2H4s          2H1pz         2H1py         2H1px         2H2pz         2H2py         2H2px         2H3pz         2H3py         2H3px     
    9    2H1d-2        2H1d-1        2H1d0         2H1d+1        2H1d+2        2H2d-2        2H2d-1        2H2d0         2H2d+1        2H2d+2    
   10    2H1f-3        2H1f-2        2H1f-1        2H1f0         2H1f+1        2H1f+2        2H1f+3        3H1s          3H2s          3H3s      
   11    3H4s          3H1pz         3H1py         3H1px         3H2pz         3H2py         3H2px         3H3pz         3H3py         3H3px     
   12    3H1d-2        3H1d-1        3H1d0         3H1d+1        3H1d+2        3H2d-2        3H2d-1        3H2d0         3H2d+1        3H2d+2    
   13    3H1f-3        3H1f-2        3H1f-1        3H1f0         3H1f+1        3H1f+2        3H1f+3        4H1s          4H2s          4H3s      
   14    4H4s          4H1pz         4H1py         4H1px         4H2pz         4H2py         4H2px         4H3pz         4H3py         4H3px     
   15    4H1d-2        4H1d-1        4H1d0         4H1d+1        4H1d+2        4H2d-2        4H2d-1        4H2d0         4H2d+1        4H2d+2    
   16    4H1f-3        4H1f-2        4H1f-1        4H1f0         4H1f+1        4H1f+2        4H1f+3    
 
 Maximum number of basis functions per shell:   24
 Total number of basis functions:    167
 
 
 Initializing the SAD routines for the initial guess...
 Checking the files required for the initial guess...
 Density files have not been found for the initial guess.
 Generating SCFDENSITIES.N.def2-svp.0
 Generating SCFDENSITIES.H.def2-svp.0
 CPU time [min]:     0.219                   Wall time [min]:     0.130
 
 Character table for point group C1:
 
          E  
    A     1
 
 Number of basis functions per irrep:
    A      29
 
 
 Calculation of overlap integrals...
 CPU time [min]:     0.220                   Wall time [min]:     0.130
 
 Calculation of the square root of the overlap matrix...
 Minimum eigenvalue of the overlap matrix: 0.299700E-01
 CPU time [min]:     0.238                   Wall time [min]:     0.131
 
 Calculation of kinetic energy integrals...
 CPU time [min]:     0.239                   Wall time [min]:     0.131
 Calculation of dipole moment integrals...
 CPU time [min]:     0.240                   Wall time [min]:     0.131
 Calculation of nuclear attraction integrals...
 CPU time [min]:     0.241                   Wall time [min]:     0.131
 
 Calculation of prescreening integrals...
 CPU time [min]:     0.247                   Wall time [min]:     0.131
 
 Calculation of two-center Coulomb integrals...
   4% done.
  17% done.
  29% done.
  41% done.
  52% done.
  67% done.
  81% done.
  92% done.
 100% done.
 CPU time [min]:     0.258                   Wall time [min]:     0.131
 
 Cholesky decomposition of the two-center matrix...
 Reciprocal of the condition number:  0.167239E-04
 CPU time [min]:     0.266                   Wall time [min]:     0.131
 
 
 Running small-basis SCF...

 ************************ 2026-02-26 16:03:57 *************************
 Executing scf...

 @scfsetup: integrals calculated directly
            mrcc/integ direct run
 @scfsetup: calculating on full matrices
            not using symmetry adapted basis
 @scfsetup: diis switched on
 @scfsetup: number of steps to extrapolate from  10
 @scfsetup: tolerance in energy deviation    0.100000E-07
            tolerance in density deviation    0.100000E-08
 @scfsetup: maximum number of iterations: 200
 @scfsetup: restricted closed shell hf calc
 @scfsetup: starting scf from superposition of atomic densities
 @scfsetup: occupation set:
            from initial orbitals
 @scfsetup: Parameter-set for SCF acceleration: normal
 @scfsetup: diis runs from iteration:   2
 @scfsetup: diis runs to iteration: 200
 @scfsetup: diis runs in every iteration
 @scfsetup: diiswatch is disabled                   
 @scfsetup: diis dtol criteria to switch on:      0.0000E+00
           (or the iteration number below is reached)
 @scfsetup: static damping scheme
            iteration step criteria to turn damping off: 3
 @scfsetup: dynamic level shifting
            tolarance in HOMO-LUMO gap:  0.200
            tolarance in density deviation:     0.0000E+00
            iteration step criteria to turn level shifting off: 8
 Allocation of 46.0 Gbytes of memory...
 ======================================================================
 ITERATION STEP   1
 CPU time [min]:     0.015                   Wall time [min]:     0.008
 

 SCF control                  : initial
 Damping factor/level shift   : 0.000/0.200
 DIIS [start/end/frequency]   :   2 /200 /  1

 Constructing Fock-matrix...
 
 Pipek-Mezey localization...
 Step  Convergence
   1   1.011998193487
   2   0.043563712298
   3   0.000018498813
   4   0.000000046736
   5   0.000000000284
 CPU time [min]:     0.042                   Wall time [min]:     0.008
 
 Constructing local fitting domains...
 Maximum number of atoms in fitting domains:    4
 Average number of atoms in fitting domains:    4.0
 
 First step of Coulomb + first step of exchange...
 Exchange contribution is evaluated for MOs 1 to 5.
   1% done.
  24% done.
  44% done.
  69% done.
  81% done.
 100% done.
 Fitting and assembly step of exchange...
 CPU time [min]:     0.103                   Wall time [min]:     0.009
 
 Second step of Coulomb...
   1% done.
  24% done.
  44% done.
  69% done.
  81% done.
 100% done.
 CPU time [min]:     0.114                   Wall time [min]:     0.010
 
 Gradient norm:      2.3664E+00
 RMS of [F,P]:                                         0.07444276031761
 RMS of difference density:                            0.02720928658296
 Gap [au]:  0.68128128
 ALPHA OCC:   5
 BETA  OCC:   5
 
 ***HARTREE-FOCK ENERGY IN STEP   1 IS        -55.8598434686342316 [AU]
 ======================================================================
 ITERATION STEP   2
 CPU time [min]:     0.125                   Wall time [min]:     0.010
 

 SCF control                  : diis
 Damping factor/level shift   : 0.000/0.000
 DIIS [start/end/frequency]   :   2 /200 /  1

 Constructing Fock-matrix...
 
 Pipek-Mezey localization...
 Step  Convergence
   1   0.020379354709
   2   0.019555771557
   3   0.000001925836
   4   0.000000000219
 CPU time [min]:     0.151                   Wall time [min]:     0.010
 
 Constructing local fitting domains...
 Maximum number of atoms in fitting domains:    4
 Average number of atoms in fitting domains:    4.0
 
 First step of Coulomb + first step of exchange...
 Exchange contribution is evaluated for MOs 1 to 5.
   1% done.
  24% done.
  44% done.
  69% done.
  81% done.
 100% done.
 Fitting and assembly step of exchange...
 CPU time [min]:     0.205                   Wall time [min]:     0.011
 
 Second step of Coulomb...
   1% done.
  24% done.
  44% done.
  69% done.
  81% done.
 100% done.
 CPU time [min]:     0.215                   Wall time [min]:     0.011
 
 Gradient norm:      3.2144E-01
 DIIS is running in this iteration step.
 RMS of [F,P]:                                         0.01591305358201
 RMS of difference density:                            0.01259210863730
 Gap [au]:  0.55096003
 ALPHA OCC:   5
 BETA  OCC:   5
 
 ***HARTREE-FOCK ENERGY IN STEP   2 IS        -56.1230170647279749 [AU]
 
 Step comparison  Energy Drift [au]  DIIS error drift  Gradient drift
        1            2.6317E-01         5.8530E-02       2.0449E+00
        2            5.6123E+01         1.0000E-09       2.0449E+00
 ======================================================================
 ITERATION STEP   3
 CPU time [min]:     0.229                   Wall time [min]:     0.011
 

 SCF control                  : diis
 Damping factor/level shift   : 0.000/0.000
 DIIS [start/end/frequency]   :   2 /200 /  1

 Constructing Fock-matrix...
 
 Pipek-Mezey localization...
 Step  Convergence
   1   0.020200899872
   2   0.019599374570
   3   0.000001486336
   4   0.000000000116
 CPU time [min]:     0.255                   Wall time [min]:     0.012
 
 Constructing local fitting domains...
 Local fitting domains are unchanged.
 
 First step of Coulomb + first step of exchange...
 Exchange contribution is evaluated for MOs 1 to 5.
   1% done.
  24% done.
  44% done.
  69% done.
  81% done.
 100% done.
 Fitting and assembly step of exchange...
 CPU time [min]:     0.307                   Wall time [min]:     0.013
 
 Second step of Coulomb...
   1% done.
  24% done.
  44% done.
  69% done.
  81% done.
 100% done.
 CPU time [min]:     0.317                   Wall time [min]:     0.013
 
 Gradient norm:      1.2618E-01
 DIIS is running in this iteration step.
 RMS of [F,P]:                                         0.00757072561700
 RMS of difference density:                            0.00382840372987
 Gap [au]:  0.60146371
 ALPHA OCC:   5
 BETA  OCC:   5
 
 ***HARTREE-FOCK ENERGY IN STEP   3 IS        -56.1422980725252927 [AU]
 
 Step comparison  Energy Drift [au]  DIIS error drift  Gradient drift
        2            1.9281E-02         8.3423E-03       1.9526E-01
 ======================================================================
 ITERATION STEP   4
 CPU time [min]:     0.337                   Wall time [min]:     0.013
 

 SCF control                  : diis
 Damping factor/level shift   : 0.000/0.000
 DIIS [start/end/frequency]   :   2 /200 /  1

 Constructing Fock-matrix...
 
 Pipek-Mezey localization...
 Step  Convergence
   1   0.019949742871
   2   0.019608447513
   3   0.000001416666
   4   0.000000000108
 CPU time [min]:     0.363                   Wall time [min]:     0.014
 
 Constructing local fitting domains...
 Local fitting domains are unchanged.
 
 First step of Coulomb + first step of exchange...
 Exchange contribution is evaluated for MOs 1 to 5.
   1% done.
  24% done.
  44% done.
  69% done.
  81% done.
 100% done.
 Fitting and assembly step of exchange...
 CPU time [min]:     0.414                   Wall time [min]:     0.014
 
 Second step of Coulomb...
   1% done.
  24% done.
  44% done.
  69% done.
  81% done.
 100% done.
 CPU time [min]:     0.424                   Wall time [min]:     0.014
 
 Gradient norm:      2.4156E-02
 DIIS is running in this iteration step.
 RMS of [F,P]:                                         0.00093697741831
 RMS of difference density:                            0.00095507407499
 Gap [au]:  0.59396192
 ALPHA OCC:   5
 BETA  OCC:   5
 
 ***HARTREE-FOCK ENERGY IN STEP   4 IS        -56.1475427510162959 [AU]
 
 Step comparison  Energy Drift [au]  DIIS error drift  Gradient drift
        3            5.2447E-03         6.6337E-03       1.0202E-01
 ======================================================================
 ITERATION STEP   5
 CPU time [min]:     0.438                   Wall time [min]:     0.015
 

 SCF control                  : diis
 Damping factor/level shift   : 0.000/0.000
 DIIS [start/end/frequency]   :   2 /200 /  1

 Constructing Fock-matrix...
 
 Pipek-Mezey localization...
 Step  Convergence
   1   0.030044932428
   2   0.029561339186
   3   0.000008705817
   4   0.000000005949
 CPU time [min]:     0.464                   Wall time [min]:     0.015
 
 Constructing local fitting domains...
 Local fitting domains are unchanged.
 
 First step of Coulomb + first step of exchange...
 Exchange contribution is evaluated for MOs 1 to 5.
   1% done.
  24% done.
  44% done.
  69% done.
  81% done.
 100% done.
 Fitting and assembly step of exchange...
 CPU time [min]:     0.515                   Wall time [min]:     0.016
 
 Second step of Coulomb...
   1% done.
  24% done.
  44% done.
  69% done.
  81% done.
 100% done.
 CPU time [min]:     0.524                   Wall time [min]:     0.016
 
 Gradient norm:      2.0154E-03
 DIIS is running in this iteration step.
 RMS of [F,P]:                                         0.00015510984758
 RMS of difference density:                            0.00013120494954
 Gap [au]:  0.59421495
 ALPHA OCC:   5
 BETA  OCC:   5
 
 ***HARTREE-FOCK ENERGY IN STEP   5 IS        -56.1477030126657581 [AU]
 
 Step comparison  Energy Drift [au]  DIIS error drift  Gradient drift
        4            1.6026E-04         7.8187E-04       2.2141E-02
 ======================================================================
 ITERATION STEP   6
 CPU time [min]:     0.538                   Wall time [min]:     0.016
 

 SCF control                  : diis
 Damping factor/level shift   : 0.000/0.000
 DIIS [start/end/frequency]   :   2 /200 /  1

 Constructing Fock-matrix...
 
 Pipek-Mezey localization...
 Step  Convergence
   1   0.039975549577
   2   0.040578155362
   3   0.000022117532
   4   0.000000001729
 CPU time [min]:     0.564                   Wall time [min]:     0.017
 
 Constructing local fitting domains...
 Local fitting domains are unchanged.
 
 First step of Coulomb + first step of exchange...
 Exchange contribution is evaluated for MOs 1 to 5.
   1% done.
  24% done.
  44% done.
  69% done.
  81% done.
 100% done.
 Fitting and assembly step of exchange...
 CPU time [min]:     0.615                   Wall time [min]:     0.017
 
 Second step of Coulomb...
   1% done.
  24% done.
  44% done.
  69% done.
  81% done.
 100% done.
 CPU time [min]:     0.625                   Wall time [min]:     0.018
 
 Gradient norm:      3.2202E-04
 DIIS is running in this iteration step.
 RMS of [F,P]:                                         0.00001618926555
 RMS of difference density:                            0.00001213393178
 Gap [au]:  0.59420397
 ALPHA OCC:   5
 BETA  OCC:   5
 
 ***HARTREE-FOCK ENERGY IN STEP   6 IS        -56.1477062778576297 [AU]
 
 Step comparison  Energy Drift [au]  DIIS error drift  Gradient drift
        5            3.2652E-06         1.3892E-04       1.6934E-03
 ======================================================================
 ITERATION STEP   7
 CPU time [min]:     0.639                   Wall time [min]:     0.018
 

 SCF control                  : diis
 Damping factor/level shift   : 0.000/0.000
 DIIS [start/end/frequency]   :   2 /200 /  1

 Constructing Fock-matrix...
 
 Pipek-Mezey localization...
 Step  Convergence
   1   0.040119175872
   2   0.039622847141
   3   0.000004835445
   4   0.000000001145
   5   0.000000000000
 CPU time [min]:     0.665                   Wall time [min]:     0.018
 
 Constructing local fitting domains...
 Local fitting domains are unchanged.
 
 First step of Coulomb + first step of exchange...
 Exchange contribution is evaluated for MOs 1 to 5.
   1% done.
  24% done.
  44% done.
  69% done.
  81% done.
 100% done.
 Fitting and assembly step of exchange...
 CPU time [min]:     0.716                   Wall time [min]:     0.019
 
 Second step of Coulomb...
   1% done.
  24% done.
  44% done.
  69% done.
  81% done.
 100% done.
 CPU time [min]:     0.726                   Wall time [min]:     0.019
 
 Gradient norm:      7.7177E-05
 DIIS is running in this iteration step.
 RMS of [F,P]:                                         0.00000262781542
 RMS of difference density:                            0.00000286551457
 Gap [au]:  0.59419393
 ALPHA OCC:   5
 BETA  OCC:   5
 
 ***HARTREE-FOCK ENERGY IN STEP   7 IS        -56.1477063132997714 [AU]
 
 Step comparison  Energy Drift [au]  DIIS error drift  Gradient drift
        6            3.5442E-08         1.3561E-05       2.4484E-04
 ======================================================================
 ITERATION STEP   8
 CPU time [min]:     0.740                   Wall time [min]:     0.019
 

 SCF control                  : diis
 Damping factor/level shift   : 0.000/0.000
 DIIS [start/end/frequency]   :   2 /200 /  1

 Constructing Fock-matrix...
 
 Pipek-Mezey localization...
 Step  Convergence
   1   0.045450454446
   2   0.043746839148
   3   0.000004594328
   4   0.000000001601
   5   0.000000000003
   6   0.000000000000
 CPU time [min]:     0.766                   Wall time [min]:     0.020
 
 Constructing local fitting domains...
 Local fitting domains are unchanged.
 
 First step of Coulomb + first step of exchange...
 Exchange contribution is evaluated for MOs 1 to 5.
   1% done.
  24% done.
  44% done.
  69% done.
  81% done.
 100% done.
 Fitting and assembly step of exchange...
 CPU time [min]:     0.817                   Wall time [min]:     0.021
 
 Second step of Coulomb...
   1% done.
  24% done.
  44% done.
  69% done.
  81% done.
 100% done.
 CPU time [min]:     0.826                   Wall time [min]:     0.021
 
 Gradient norm:      1.0792E-05
 DIIS is running in this iteration step.
 RMS of [F,P]:                                         0.00000054055437
 RMS of difference density:                            0.00000096802676
 Gap [au]:  0.59419003
 ALPHA OCC:   5
 BETA  OCC:   5
 
 ***HARTREE-FOCK ENERGY IN STEP   8 IS        -56.1477063149529556 [AU]
 
 Step comparison  Energy Drift [au]  DIIS error drift  Gradient drift
        7            1.6532E-09         2.0873E-06       6.6385E-05
 ======================================================================
 ITERATION STEP   9
 CPU time [min]:     0.840                   Wall time [min]:     0.021
 

 SCF control                  : diis
 Damping factor/level shift   : 0.000/0.000
 DIIS [start/end/frequency]   :   2 /200 /  1

 Constructing Fock-matrix...
 
 Pipek-Mezey localization...
 Step  Convergence
   1   0.045450983975
   2   0.043745910339
   3   0.000023393749
   4   0.000000091368
   5   0.000000000185
   6   0.000000000000
 CPU time [min]:     0.866                   Wall time [min]:     0.021
 
 Constructing local fitting domains...
 Local fitting domains are unchanged.
 
 First step of Coulomb + first step of exchange...
 Exchange contribution is evaluated for MOs 1 to 5.
   1% done.
  24% done.
  44% done.
  69% done.
  81% done.
 100% done.
 Fitting and assembly step of exchange...
 CPU time [min]:     0.917                   Wall time [min]:     0.022
 
 Second step of Coulomb...
   1% done.
  24% done.
  44% done.
  69% done.
  81% done.
 100% done.
 CPU time [min]:     0.927                   Wall time [min]:     0.022
 
 Gradient norm:      3.1569E-06
 DIIS is running in this iteration step.
 RMS of [F,P]:                                         0.00000009591344
 RMS of difference density:                            0.00000029099195
 Gap [au]:  0.59418987
 ALPHA OCC:   5
 BETA  OCC:   5
 
 ***HARTREE-FOCK ENERGY IN STEP   9 IS        -56.1477063150560411 [AU]
 
 Step comparison  Energy Drift [au]  DIIS error drift  Gradient drift
        8            1.0309E-10         4.4464E-07       7.6352E-06
 ======================================================================
 ITERATION STEP  10
 CPU time [min]:     0.943                   Wall time [min]:     0.023
 

 SCF control                  : diis
 Damping factor/level shift   : 0.000/0.000
 DIIS [start/end/frequency]   :   2 /200 /  1

 Constructing Fock-matrix...
 
 Pipek-Mezey localization...
 Step  Convergence
   1   0.045451254941
   2   0.043768969836
   3   0.000003261398
   4   0.000000001430
   5   0.000000000002
   6   0.000000000000
 CPU time [min]:     0.969                   Wall time [min]:     0.023
 
 Constructing local fitting domains...
 Local fitting domains are unchanged.
 
 First step of Coulomb + first step of exchange...
 Exchange contribution is evaluated for MOs 1 to 5.
   1% done.
  24% done.
  44% done.
  69% done.
  81% done.
 100% done.
 Fitting and assembly step of exchange...
 CPU time [min]:     1.021                   Wall time [min]:     0.024
 
 Second step of Coulomb...
   1% done.
  24% done.
  44% done.
  69% done.
  81% done.
 100% done.
 CPU time [min]:     1.030                   Wall time [min]:     0.024
 
 Gradient norm:      6.3566E-07
 DIIS is running in this iteration step.
 RMS of [F,P]:                                         0.00000002162531
 RMS of difference density:                            0.00000007192092
 Gap [au]:  0.59418990
 ALPHA OCC:   5
 BETA  OCC:   5
 
 ***HARTREE-FOCK ENERGY IN STEP  10 IS        -56.1477063150609155 [AU]
 
 Step comparison  Energy Drift [au]  DIIS error drift  Gradient drift
        9            4.8743E-12         7.4288E-08       2.5213E-06
 ======================================================================
 ITERATION STEP  11
 CPU time [min]:     1.044                   Wall time [min]:     0.024
 

 SCF control                  : diis
 Damping factor/level shift   : 0.000/0.000
 DIIS [start/end/frequency]   :   2 /200 /  1

 Constructing Fock-matrix...
 
 Pipek-Mezey localization...
 Step  Convergence
   1   0.045572701156
   2   0.043771976633
   3   0.000019194734
   4   0.000000076401
   5   0.000000000455
   6   0.000000000003
   7   0.000000000000
 CPU time [min]:     1.070                   Wall time [min]:     0.025
 
 Constructing local fitting domains...
 Local fitting domains are unchanged.
 
 First step of Coulomb + first step of exchange...
 Exchange contribution is evaluated for MOs 1 to 5.
   1% done.
  24% done.
  44% done.
  69% done.
  81% done.
 100% done.
 Fitting and assembly step of exchange...
 CPU time [min]:     1.121                   Wall time [min]:     0.025
 
 Second step of Coulomb...
   1% done.
  24% done.
  44% done.
  69% done.
  81% done.
 100% done.
 CPU time [min]:     1.131                   Wall time [min]:     0.026
 
 Gradient norm:      4.4728E-08
 DIIS is running in this iteration step.
 RMS of [F,P]:                                         0.00000000196020
 RMS of difference density:                            0.00000000390138
 Gap [au]:  0.59418991
 ALPHA OCC:   5
 BETA  OCC:   5
 
 ***HARTREE-FOCK ENERGY IN STEP  11 IS        -56.1477063150611286 [AU]
 
 Step comparison  Energy Drift [au]  DIIS error drift  Gradient drift
       10            2.1316E-13         1.9665E-08       5.9093E-07
 ======================================================================
 ITERATION STEP  12
 CPU time [min]:     1.146                   Wall time [min]:     0.026
 

 SCF control                  : diis
 Damping factor/level shift   : 0.000/0.000
 DIIS [start/end/frequency]   :   2 /200 /  1

 Constructing Fock-matrix...
 
 Pipek-Mezey localization...
 Step  Convergence
   1   0.045451405912
   2   0.043687799756
   3   0.000055325476
   4   0.000000299248
   5   0.000000000602
   6   0.000000000001
   7   0.000000000000
 CPU time [min]:     1.172                   Wall time [min]:     0.026
 
 Constructing local fitting domains...
 Local fitting domains are unchanged.
 
 First step of Coulomb + first step of exchange...
 Exchange contribution is evaluated for MOs 1 to 5.
   1% done.
  24% done.
  44% done.
  69% done.
  81% done.
 100% done.
 Fitting and assembly step of exchange...
 CPU time [min]:     1.222                   Wall time [min]:     0.027
 
 Second step of Coulomb...
   1% done.
  24% done.
  44% done.
  69% done.
  81% done.
 100% done.
 CPU time [min]:     1.232                   Wall time [min]:     0.027
 
 Gradient norm:      3.1969E-09
 DIIS is running in this iteration step.
 RMS of [F,P]:                                         0.00000000016317
 RMS of difference density:                            0.00000000023249
 Gap [au]:  0.59418991
 ALPHA OCC:   5
 BETA  OCC:   5
 
 ***HARTREE-FOCK ENERGY IN STEP  12 IS        -56.1477063150611002 [AU]
 
 Step comparison  Energy Drift [au]  DIIS error drift  Gradient drift
       11           -2.8422E-14         1.7970E-09       4.1531E-08
 Warning! The energy goes uphill (with respect to previous step).
 
 The SCF iteration has converged.
 An extra iteration will be performed to calculate accurate SCF energy.
 
 ======================================================================
 ITERATION STEP  13
 CPU time [min]:     1.248                   Wall time [min]:     0.027
 

 SCF control                  : diis
 Damping factor/level shift   : 0.000/0.000
 DIIS [start/end/frequency]   :   2 /200 /  1

 Constructing Fock-matrix...
 
 Pipek-Mezey localization...
 Step  Convergence
   1   0.040017393046
   2   0.039783774513
   3   0.000007490134
   4   0.000000001363
   5   0.000000000001
 CPU time [min]:     1.274                   Wall time [min]:     0.028
 
 Constructing local fitting domains...
 Local fitting domains are unchanged.
 
 First step of Coulomb + first step of exchange...
 Exchange contribution is evaluated for MOs 1 to 5.
   1% done.
  24% done.
  44% done.
  69% done.
  81% done.
 100% done.
 Fitting and assembly step of exchange...
 CPU time [min]:     1.326                   Wall time [min]:     0.029
 
 Second step of Coulomb...
   1% done.
  24% done.
  44% done.
  69% done.
  81% done.
 100% done.
 CPU time [min]:     1.336                   Wall time [min]:     0.029
 
 Gradient norm:      5.1115E-10
 RMS of [F,P]:                                         0.00000000002716
 RMS of difference density:                            0.00000000003347
 Gap [au]:  0.59418991
 ALPHA OCC:   5
 BETA  OCC:   5
 
 ***HARTREE-FOCK ENERGY IN STEP  13 IS        -56.1477063150611215 [AU]
 
 Step comparison  Energy Drift [au]  DIIS error drift  Gradient drift
       12            2.1316E-14         1.3601E-10       2.6857E-09
 ======================================================================
 
 SUCCESS...
 THE SCF ITERATION HAS CONVERGED!
 
                   A   
 FINAL ALPHA OCC:   5
 FINAL BETA  OCC:   5
 
 ***FINAL HARTREE-FOCK ENERGY:        -56.1477063150611215 [AU]
 
 Orbital energies [au]:
      Irrep         Alpha          Beta
    1   A        -15.539163     -15.539163
    2   A         -1.111214      -1.111214
    3   A         -0.615134      -0.615134
    4   A         -0.615103      -0.615103
    5   A         -0.418560      -0.418560
 
    6   A          0.175630       0.175630
    7   A          0.268893       0.268893
    8   A          0.268900       0.268900
    9   A          0.733854       0.733854
   10   A          0.733893       0.733893
   11   A          0.882385       0.882385
   12   A          0.990000       0.990000
   13   A          1.093598       1.093598
   14   A          1.093606       1.093606
   15   A          1.140263       1.140263
   16   A          1.459621       1.459621
   17   A          1.459637       1.459637
   18   A          1.866467       1.866467
   19   A          1.964301       1.964301
   20   A          2.074287       2.074287
   21   A          2.074298       2.074298
   22   A          2.418489       2.418489
   23   A          2.418604       2.418604
   24   A          2.745580       2.745580
   25   A          3.155563       3.155563
   26   A          3.155580       3.155580
   27   A          3.258821       3.258821
   28   A          3.692147       3.692147
   29   A          3.692186       3.692186
 
 RETURNING FROM SCF ALGORITHM
 ======================================================================

 ************************ 2026-02-26 16:03:59 *************************
 Executing integ...

 Allocation of 46.0 Gbytes of memory...
 
 
 Number of atoms:                  4
 Charge:                           0
 Number of electrons:             10
 Number of core electrons:         2
 Spin multiplicity:                1
 
                 Cartesian coordinates [bohr]      Atomic mass [AMU]  Z
   1  N     1.97420664    1.97415541    1.97424640    14.003074       7
   2  H     3.51863349    2.63865391    1.00653002     1.007825       1
   3  H     2.63877653    1.00647336    3.51882825     1.007825       1
   4  H     1.00639751    3.51850532    2.63869260     1.007825       1
 
 This molecule is an asymmetric top.
 
 Rotational constants [cm-1]: 
      9.725611553639      9.725262897102      6.126632394896
 
 Point group: C1  
 Computational point group: C1  
 
 Cartesian coordinates in standard orientation [bohr]
   1  N     0.00001974   -0.00000801   -0.12725315
   2  H     1.29159153    1.25758525    0.58939811
   3  H    -1.73502610    0.48986803    0.58928866
   4  H     0.44316034   -1.74734193    0.58941309
 
 Nuclear repulsion energy [au]:         11.785797783990
 
 
 Basis set information:
 
 Maximum angular momentum: h
 Maximum number of contracted Gaussians:   11
 Maximum number of primitive Gaussians:    14
 Spherical harmonic GTOs are used.
 
 
 Conventional basis set:
 
   1  N  aug-cc-pvqz [ 13s 7p 4d 3f 2g | 6s 5p 4d 3f 2g ]
   2  H  aug-cc-pvqz [ 7s 4p 3d 2f | 5s 4p 3d 2f ]
   3  H  aug-cc-pvqz [ 7s 4p 3d 2f | 5s 4p 3d 2f ]
   4  H  aug-cc-pvqz [ 7s 4p 3d 2f | 5s 4p 3d 2f ]
 
 Basis functions:
            1             2             3             4             5             6             7             8             9            10
    0    1N1s          1N2s          1N3s          1N4s          1N5s          1N6s          1N1pz         1N1py         1N1px         1N2pz     
    1    1N2py         1N2px         1N3pz         1N3py         1N3px         1N4pz         1N4py         1N4px         1N5pz         1N5py     
    2    1N5px         1N1d-2        1N1d-1        1N1d0         1N1d+1        1N1d+2        1N2d-2        1N2d-1        1N2d0         1N2d+1    
    3    1N2d+2        1N3d-2        1N3d-1        1N3d0         1N3d+1        1N3d+2        1N4d-2        1N4d-1        1N4d0         1N4d+1    
    4    1N4d+2        1N1f-3        1N1f-2        1N1f-1        1N1f0         1N1f+1        1N1f+2        1N1f+3        1N2f-3        1N2f-2    
    5    1N2f-1        1N2f0         1N2f+1        1N2f+2        1N2f+3        1N3f-3        1N3f-2        1N3f-1        1N3f0         1N3f+1    
    6    1N3f+2        1N3f+3        1N1g-4        1N1g-3        1N1g-2        1N1g-1        1N1g0         1N1g+1        1N1g+2        1N1g+3    
    7    1N1g+4        1N2g-4        1N2g-3        1N2g-2        1N2g-1        1N2g0         1N2g+1        1N2g+2        1N2g+3        1N2g+4    
    8    2H1s          2H2s          2H3s          2H4s          2H5s          2H1pz         2H1py         2H1px         2H2pz         2H2py     
    9    2H2px         2H3pz         2H3py         2H3px         2H4pz         2H4py         2H4px         2H1d-2        2H1d-1        2H1d0     
   10    2H1d+1        2H1d+2        2H2d-2        2H2d-1        2H2d0         2H2d+1        2H2d+2        2H3d-2        2H3d-1        2H3d0     
   11    2H3d+1        2H3d+2        2H1f-3        2H1f-2        2H1f-1        2H1f0         2H1f+1        2H1f+2        2H1f+3        2H2f-3    
   12    2H2f-2        2H2f-1        2H2f0         2H2f+1        2H2f+2        2H2f+3        3H1s          3H2s          3H3s          3H4s      
   13    3H5s          3H1pz         3H1py         3H1px         3H2pz         3H2py         3H2px         3H3pz         3H3py         3H3px     
   14    3H4pz         3H4py         3H4px         3H1d-2        3H1d-1        3H1d0         3H1d+1        3H1d+2        3H2d-2        3H2d-1    
   15    3H2d0         3H2d+1        3H2d+2        3H3d-2        3H3d-1        3H3d0         3H3d+1        3H3d+2        3H1f-3        3H1f-2    
   16    3H1f-1        3H1f0         3H1f+1        3H1f+2        3H1f+3        3H2f-3        3H2f-2        3H2f-1        3H2f0         3H2f+1    
   17    3H2f+2        3H2f+3        4H1s          4H2s          4H3s          4H4s          4H5s          4H1pz         4H1py         4H1px     
   18    4H2pz         4H2py         4H2px         4H3pz         4H3py         4H3px         4H4pz         4H4py         4H4px         4H1d-2    
   19    4H1d-1        4H1d0         4H1d+1        4H1d+2        4H2d-2        4H2d-1        4H2d0         4H2d+1        4H2d+2        4H3d-2    
   20    4H3d-1        4H3d0         4H3d+1        4H3d+2        4H1f-3        4H1f-2        4H1f-1        4H1f0         4H1f+1        4H1f+2    
   21    4H1f+3        4H2f-3        4H2f-2        4H2f-1        4H2f0         4H2f+1        4H2f+2        4H2f+3    
 
 Maximum number of basis functions per shell:   21
 Total number of basis functions:    218
 
 
 Fitting basis set for the SCF calculation:
 
   1  N  aug-cc-pvqz-ri-jk [ 11s 8p 6d 4f 3g 2h | 11s 8p 6d 4f 3g 2h ]
   2  H  aug-cc-pvqz-ri-jk [ 5s 4p 4d 3f 2g | 5s 4p 4d 3f 2g ]
   3  H  aug-cc-pvqz-ri-jk [ 5s 4p 4d 3f 2g | 5s 4p 4d 3f 2g ]
   4  H  aug-cc-pvqz-ri-jk [ 5s 4p 4d 3f 2g | 5s 4p 4d 3f 2g ]
 
 Basis functions:
            1             2             3             4             5             6             7             8             9            10
    0    1N1s          1N2s          1N3s          1N4s          1N5s          1N6s          1N7s          1N8s          1N9s          1N10s     
    1    1N11s         1N1pz         1N1py         1N1px         1N2pz         1N2py         1N2px         1N3pz         1N3py         1N3px     
    2    1N4pz         1N4py         1N4px         1N5pz         1N5py         1N5px         1N6pz         1N6py         1N6px         1N7pz     
    3    1N7py         1N7px         1N8pz         1N8py         1N8px         1N1d-2        1N1d-1        1N1d0         1N1d+1        1N1d+2    
    4    1N2d-2        1N2d-1        1N2d0         1N2d+1        1N2d+2        1N3d-2        1N3d-1        1N3d0         1N3d+1        1N3d+2    
    5    1N4d-2        1N4d-1        1N4d0         1N4d+1        1N4d+2        1N5d-2        1N5d-1        1N5d0         1N5d+1        1N5d+2    
    6    1N6d-2        1N6d-1        1N6d0         1N6d+1        1N6d+2        1N1f-3        1N1f-2        1N1f-1        1N1f0         1N1f+1    
    7    1N1f+2        1N1f+3        1N2f-3        1N2f-2        1N2f-1        1N2f0         1N2f+1        1N2f+2        1N2f+3        1N3f-3    
    8    1N3f-2        1N3f-1        1N3f0         1N3f+1        1N3f+2        1N3f+3        1N4f-3        1N4f-2        1N4f-1        1N4f0     
    9    1N4f+1        1N4f+2        1N4f+3        1N1g-4        1N1g-3        1N1g-2        1N1g-1        1N1g0         1N1g+1        1N1g+2    
   10    1N1g+3        1N1g+4        1N2g-4        1N2g-3        1N2g-2        1N2g-1        1N2g0         1N2g+1        1N2g+2        1N2g+3    
   11    1N2g+4        1N3g-4        1N3g-3        1N3g-2        1N3g-1        1N3g0         1N3g+1        1N3g+2        1N3g+3        1N3g+4    
   12    1N1h-5        1N1h-4        1N1h-3        1N1h-2        1N1h-1        1N1h0         1N1h+1        1N1h+2        1N1h+3        1N1h+4    
   13    1N1h+5        1N2h-5        1N2h-4        1N2h-3        1N2h-2        1N2h-1        1N2h0         1N2h+1        1N2h+2        1N2h+3    
   14    1N2h+4        1N2h+5        2H1s          2H2s          2H3s          2H4s          2H5s          2H1pz         2H1py         2H1px     
   15    2H2pz         2H2py         2H2px         2H3pz         2H3py         2H3px         2H4pz         2H4py         2H4px         2H1d-2    
   16    2H1d-1        2H1d0         2H1d+1        2H1d+2        2H2d-2        2H2d-1        2H2d0         2H2d+1        2H2d+2        2H3d-2    
   17    2H3d-1        2H3d0         2H3d+1        2H3d+2        2H4d-2        2H4d-1        2H4d0         2H4d+1        2H4d+2        2H1f-3    
   18    2H1f-2        2H1f-1        2H1f0         2H1f+1        2H1f+2        2H1f+3        2H2f-3        2H2f-2        2H2f-1        2H2f0     
   19    2H2f+1        2H2f+2        2H2f+3        2H3f-3        2H3f-2        2H3f-1        2H3f0         2H3f+1        2H3f+2        2H3f+3    
   20    2H1g-4        2H1g-3        2H1g-2        2H1g-1        2H1g0         2H1g+1        2H1g+2        2H1g+3        2H1g+4        2H2g-4    
   21    2H2g-3        2H2g-2        2H2g-1        2H2g0         2H2g+1        2H2g+2        2H2g+3        2H2g+4        3H1s          3H2s      
   22    3H3s          3H4s          3H5s          3H1pz         3H1py         3H1px         3H2pz         3H2py         3H2px         3H3pz     
   23    3H3py         3H3px         3H4pz         3H4py         3H4px         3H1d-2        3H1d-1        3H1d0         3H1d+1        3H1d+2    
   24    3H2d-2        3H2d-1        3H2d0         3H2d+1        3H2d+2        3H3d-2        3H3d-1        3H3d0         3H3d+1        3H3d+2    
   25    3H4d-2        3H4d-1        3H4d0         3H4d+1        3H4d+2        3H1f-3        3H1f-2        3H1f-1        3H1f0         3H1f+1    
   26    3H1f+2        3H1f+3        3H2f-3        3H2f-2        3H2f-1        3H2f0         3H2f+1        3H2f+2        3H2f+3        3H3f-3    
   27    3H3f-2        3H3f-1        3H3f0         3H3f+1        3H3f+2        3H3f+3        3H1g-4        3H1g-3        3H1g-2        3H1g-1    
   28    3H1g0         3H1g+1        3H1g+2        3H1g+3        3H1g+4        3H2g-4        3H2g-3        3H2g-2        3H2g-1        3H2g0     
   29    3H2g+1        3H2g+2        3H2g+3        3H2g+4        4H1s          4H2s          4H3s          4H4s          4H5s          4H1pz     
   30    4H1py         4H1px         4H2pz         4H2py         4H2px         4H3pz         4H3py         4H3px         4H4pz         4H4py     
   31    4H4px         4H1d-2        4H1d-1        4H1d0         4H1d+1        4H1d+2        4H2d-2        4H2d-1        4H2d0         4H2d+1    
   32    4H2d+2        4H3d-2        4H3d-1        4H3d0         4H3d+1        4H3d+2        4H4d-2        4H4d-1        4H4d0         4H4d+1    
   33    4H4d+2        4H1f-3        4H1f-2        4H1f-1        4H1f0         4H1f+1        4H1f+2        4H1f+3        4H2f-3        4H2f-2    
   34    4H2f-1        4H2f0         4H2f+1        4H2f+2        4H2f+3        4H3f-3        4H3f-2        4H3f-1        4H3f0         4H3f+1    
   35    4H3f+2        4H3f+3        4H1g-4        4H1g-3        4H1g-2        4H1g-1        4H1g0         4H1g+1        4H1g+2        4H1g+3    
   36    4H1g+4        4H2g-4        4H2g-3        4H2g-2        4H2g-1        4H2g0         4H2g+1        4H2g+2        4H2g+3        4H2g+4    
 
 Maximum number of basis functions per shell:   30
 Total number of basis functions:    370
 
 
 Fitting basis set for the correlation calculation:
 
   1  N  aug-cc-pvqz-ri [ 9s 8p 7d 6f 4g 2h | 9s 8p 7d 6f 4g 2h ]
   2  H  aug-cc-pvqz-ri [ 6s 5p 4d 3f 2g | 6s 5p 4d 3f 2g ]
   3  H  aug-cc-pvqz-ri [ 6s 5p 4d 3f 2g | 6s 5p 4d 3f 2g ]
   4  H  aug-cc-pvqz-ri [ 6s 5p 4d 3f 2g | 6s 5p 4d 3f 2g ]
 
 Basis functions:
            1             2             3             4             5             6             7             8             9            10
    0    1N1s          1N2s          1N3s          1N4s          1N5s          1N6s          1N7s          1N8s          1N9s          1N1pz     
    1    1N1py         1N1px         1N2pz         1N2py         1N2px         1N3pz         1N3py         1N3px         1N4pz         1N4py     
    2    1N4px         1N5pz         1N5py         1N5px         1N6pz         1N6py         1N6px         1N7pz         1N7py         1N7px     
    3    1N8pz         1N8py         1N8px         1N1d-2        1N1d-1        1N1d0         1N1d+1        1N1d+2        1N2d-2        1N2d-1    
    4    1N2d0         1N2d+1        1N2d+2        1N3d-2        1N3d-1        1N3d0         1N3d+1        1N3d+2        1N4d-2        1N4d-1    
    5    1N4d0         1N4d+1        1N4d+2        1N5d-2        1N5d-1        1N5d0         1N5d+1        1N5d+2        1N6d-2        1N6d-1    
    6    1N6d0         1N6d+1        1N6d+2        1N7d-2        1N7d-1        1N7d0         1N7d+1        1N7d+2        1N1f-3        1N1f-2    
    7    1N1f-1        1N1f0         1N1f+1        1N1f+2        1N1f+3        1N2f-3        1N2f-2        1N2f-1        1N2f0         1N2f+1    
    8    1N2f+2        1N2f+3        1N3f-3        1N3f-2        1N3f-1        1N3f0         1N3f+1        1N3f+2        1N3f+3        1N4f-3    
    9    1N4f-2        1N4f-1        1N4f0         1N4f+1        1N4f+2        1N4f+3        1N5f-3        1N5f-2        1N5f-1        1N5f0     
   10    1N5f+1        1N5f+2        1N5f+3        1N6f-3        1N6f-2        1N6f-1        1N6f0         1N6f+1        1N6f+2        1N6f+3    
   11    1N1g-4        1N1g-3        1N1g-2        1N1g-1        1N1g0         1N1g+1        1N1g+2        1N1g+3        1N1g+4        1N2g-4    
   12    1N2g-3        1N2g-2        1N2g-1        1N2g0         1N2g+1        1N2g+2        1N2g+3        1N2g+4        1N3g-4        1N3g-3    
   13    1N3g-2        1N3g-1        1N3g0         1N3g+1        1N3g+2        1N3g+3        1N3g+4        1N4g-4        1N4g-3        1N4g-2    
   14    1N4g-1        1N4g0         1N4g+1        1N4g+2        1N4g+3        1N4g+4        1N1h-5        1N1h-4        1N1h-3        1N1h-2    
   15    1N1h-1        1N1h0         1N1h+1        1N1h+2        1N1h+3        1N1h+4        1N1h+5        1N2h-5        1N2h-4        1N2h-3    
   16    1N2h-2        1N2h-1        1N2h0         1N2h+1        1N2h+2        1N2h+3        1N2h+4        1N2h+5        2H1s          2H2s      
   17    2H3s          2H4s          2H5s          2H6s          2H1pz         2H1py         2H1px         2H2pz         2H2py         2H2px     
   18    2H3pz         2H3py         2H3px         2H4pz         2H4py         2H4px         2H5pz         2H5py         2H5px         2H1d-2    
   19    2H1d-1        2H1d0         2H1d+1        2H1d+2        2H2d-2        2H2d-1        2H2d0         2H2d+1        2H2d+2        2H3d-2    
   20    2H3d-1        2H3d0         2H3d+1        2H3d+2        2H4d-2        2H4d-1        2H4d0         2H4d+1        2H4d+2        2H1f-3    
   21    2H1f-2        2H1f-1        2H1f0         2H1f+1        2H1f+2        2H1f+3        2H2f-3        2H2f-2        2H2f-1        2H2f0     
   22    2H2f+1        2H2f+2        2H2f+3        2H3f-3        2H3f-2        2H3f-1        2H3f0         2H3f+1        2H3f+2        2H3f+3    
   23    2H1g-4        2H1g-3        2H1g-2        2H1g-1        2H1g0         2H1g+1        2H1g+2        2H1g+3        2H1g+4        2H2g-4    
   24    2H2g-3        2H2g-2        2H2g-1        2H2g0         2H2g+1        2H2g+2        2H2g+3        2H2g+4        3H1s          3H2s      
   25    3H3s          3H4s          3H5s          3H6s          3H1pz         3H1py         3H1px         3H2pz         3H2py         3H2px     
   26    3H3pz         3H3py         3H3px         3H4pz         3H4py         3H4px         3H5pz         3H5py         3H5px         3H1d-2    
   27    3H1d-1        3H1d0         3H1d+1        3H1d+2        3H2d-2        3H2d-1        3H2d0         3H2d+1        3H2d+2        3H3d-2    
   28    3H3d-1        3H3d0         3H3d+1        3H3d+2        3H4d-2        3H4d-1        3H4d0         3H4d+1        3H4d+2        3H1f-3    
   29    3H1f-2        3H1f-1        3H1f0         3H1f+1        3H1f+2        3H1f+3        3H2f-3        3H2f-2        3H2f-1        3H2f0     
   30    3H2f+1        3H2f+2        3H2f+3        3H3f-3        3H3f-2        3H3f-1        3H3f0         3H3f+1        3H3f+2        3H3f+3    
   31    3H1g-4        3H1g-3        3H1g-2        3H1g-1        3H1g0         3H1g+1        3H1g+2        3H1g+3        3H1g+4        3H2g-4    
   32    3H2g-3        3H2g-2        3H2g-1        3H2g0         3H2g+1        3H2g+2        3H2g+3        3H2g+4        4H1s          4H2s      
   33    4H3s          4H4s          4H5s          4H6s          4H1pz         4H1py         4H1px         4H2pz         4H2py         4H2px     
   34    4H3pz         4H3py         4H3px         4H4pz         4H4py         4H4px         4H5pz         4H5py         4H5px         4H1d-2    
   35    4H1d-1        4H1d0         4H1d+1        4H1d+2        4H2d-2        4H2d-1        4H2d0         4H2d+1        4H2d+2        4H3d-2    
   36    4H3d-1        4H3d0         4H3d+1        4H3d+2        4H4d-2        4H4d-1        4H4d0         4H4d+1        4H4d+2        4H1f-3    
   37    4H1f-2        4H1f-1        4H1f0         4H1f+1        4H1f+2        4H1f+3        4H2f-3        4H2f-2        4H2f-1        4H2f0     
   38    4H2f+1        4H2f+2        4H2f+3        4H3f-3        4H3f-2        4H3f-1        4H3f0         4H3f+1        4H3f+2        4H3f+3    
   39    4H1g-4        4H1g-3        4H1g-2        4H1g-1        4H1g0         4H1g+1        4H1g+2        4H1g+3        4H1g+4        4H2g-4    
   40    4H2g-3        4H2g-2        4H2g-1        4H2g0         4H2g+1        4H2g+2        4H2g+3        4H2g+4    
 
 Maximum number of basis functions per shell:   42
 Total number of basis functions:    408
 
 
 Old basis set for SCF restart
 
   1  N  def2-svp [ 7s 4p 1d | 3s 2p 1d ]
   2  H  def2-svp [ 4s 1p | 2s 1p ]
   3  H  def2-svp [ 4s 1p | 2s 1p ]
   4  H  def2-svp [ 4s 1p | 2s 1p ]
 
 Basis functions:
            1             2             3             4             5             6             7             8             9            10
    0    1N1s          1N2s          1N3s          1N1pz         1N1py         1N1px         1N2pz         1N2py         1N2px         1N1d-2    
    1    1N1d-1        1N1d0         1N1d+1        1N1d+2        2H1s          2H2s          2H1pz         2H1py         2H1px         3H1s      
    2    3H2s          3H1pz         3H1py         3H1px         4H1s          4H2s          4H1pz         4H1py         4H1px     
 
 Maximum number of basis functions per shell:   42
 Total number of basis functions:     29
 
 
 Character table for point group C1:
 
          E  
    A     1
 
 Number of basis functions per irrep:
    A     218
 
 
 Calculation of overlap integrals...
 CPU time [min]:     0.132                   Wall time [min]:     0.004
 
 Calculation of the square root of the overlap matrix...
 Minimum eigenvalue of the overlap matrix: 0.493613E-04
 CPU time [min]:     0.155                   Wall time [min]:     0.005
 
 Calculation of kinetic energy integrals...
 CPU time [min]:     0.157                   Wall time [min]:     0.005
 Calculation of dipole moment integrals...
 CPU time [min]:     0.158                   Wall time [min]:     0.005
 Calculation of nuclear attraction integrals...
 CPU time [min]:     0.160                   Wall time [min]:     0.005
 Calculation of overlap integrals...
 CPU time [min]:     0.162                   Wall time [min]:     0.005
 
 Calculation of prescreening integrals...
 CPU time [min]:     0.508                   Wall time [min]:     0.011
 
 Calculation of two-center Coulomb integrals...
   1% done.
  15% done.
  29% done.
  40% done.
  56% done.
  71% done.
  91% done.
 100% done.
 CPU time [min]:     0.520                   Wall time [min]:     0.011
 
 Cholesky decomposition of the two-center matrix...
 Reciprocal of the condition number:  0.161211E-04
 CPU time [min]:     0.527                   Wall time [min]:     0.011
 

 ************************ 2026-02-26 16:04:00 *************************
 Executing scf...

 @scfsetup: integrals calculated directly
            mrcc/integ direct run
 @scfsetup: calculating on full matrices
            not using symmetry adapted basis
 @scfsetup: diis switched on
 @scfsetup: number of steps to extrapolate from  10
 @scfsetup: tolerance in energy deviation    0.100000E-07
            tolerance in density deviation    0.100000E-08
 @scfsetup: maximum number of iterations: 200
 @scfsetup: restricted closed shell hf calc
 @scfsetup: restarting scf from SCFDENSITIES file
 @scfsetup: occupation set:
            from initial orbitals
 @scfsetup: Parameter-set for SCF acceleration: normal
 @scfsetup: diis runs from iteration:   2
 @scfsetup: diis runs to iteration: 200
 @scfsetup: diis runs in every iteration
 @scfsetup: diiswatch is disabled                   
 @scfsetup: diis dtol criteria to switch on:      0.0000E+00
           (or the iteration number below is reached)
 @scfsetup: static damping scheme
            iteration step criteria to turn damping off: 3
 @scfsetup: dynamic level shifting
            tolarance in HOMO-LUMO gap:  0.200
            tolarance in density deviation:     0.0000E+00
            iteration step criteria to turn level shifting off: 8
 Allocation of 46.0 Gbytes of memory...
 ======================================================================
 ITERATION STEP   1
 CPU time [min]:     0.041                   Wall time [min]:     0.008
 

 SCF control                  : initial
 Damping factor/level shift   : 0.000/0.200
 DIIS [start/end/frequency]   :   2 /200 /  1

 Constructing Fock-matrix...
 Inverse square root: The matrix is not positive definite!
 
 Pipek-Mezey localization...
 Step  Convergence
   1   0.955444315414
   2   0.055742988012
   3   0.000468106693
   4   0.000011600822
   5   0.000000309328
   6   0.000000009898
 CPU time [min]:     0.069                   Wall time [min]:     0.009
 
 Constructing local fitting domains...
 Maximum number of atoms in fitting domains:    4
 Average number of atoms in fitting domains:    4.0
 
 First step of Coulomb + first step of exchange...
 Exchange contribution is evaluated for MOs 1 to 5.
   1% done.
  14% done.
  27% done.
  43% done.
  62% done.
  75% done.
  88% done.
 100% done.
 Fitting and assembly step of exchange...
 CPU time [min]:     0.200                   Wall time [min]:     0.011
 
 Second step of Coulomb...
   1% done.
  14% done.
  27% done.
  43% done.
  62% done.
  75% done.
  88% done.
 100% done.
 CPU time [min]:     0.245                   Wall time [min]:     0.012
 
 Gradient norm:      9.2374E-01
 RMS of [F,P]:                                         0.00996892911474
 RMS of difference density:                            0.02051473399434
 Gap [au]:  0.45172478
 ALPHA OCC:   5
 BETA  OCC:   5
 
 ***HARTREE-FOCK ENERGY IN STEP   1 IS        -56.1750302089148903 [AU]
 ======================================================================
 ITERATION STEP   2
 CPU time [min]:     0.274                   Wall time [min]:     0.012
 

 SCF control                  : diis
 Damping factor/level shift   : 0.000/0.000
 DIIS [start/end/frequency]   :   2 /200 /  1

 Constructing Fock-matrix...
 
 Pipek-Mezey localization...
 Step  Convergence
   1   0.019958988568
   2   0.019637513521
   3   0.000003955845
   4   0.000000023145
   5   0.000000000331
 CPU time [min]:     0.297                   Wall time [min]:     0.013
 
 Constructing local fitting domains...
 Maximum number of atoms in fitting domains:    4
 Average number of atoms in fitting domains:    4.0
 
 First step of Coulomb + first step of exchange...
 Exchange contribution is evaluated for MOs 1 to 5.
   1% done.
  14% done.
  27% done.
  43% done.
  62% done.
  75% done.
  88% done.
 100% done.
 Fitting and assembly step of exchange...
 CPU time [min]:     0.419                   Wall time [min]:     0.015
 
 Second step of Coulomb...
   1% done.
  14% done.
  27% done.
  43% done.
  62% done.
  75% done.
  88% done.
 100% done.
 CPU time [min]:     0.461                   Wall time [min]:     0.015
 
 Gradient norm:      5.2914E-02
 DIIS is running in this iteration step.
 RMS of [F,P]:                                         0.00034995926283
 RMS of difference density:                            0.00127251062370
 Gap [au]:  0.45421592
 ALPHA OCC:   5
 BETA  OCC:   5
 
 ***HARTREE-FOCK ENERGY IN STEP   2 IS        -56.2214072362194273 [AU]
 
 Step comparison  Energy Drift [au]  DIIS error drift  Gradient drift
        1            4.6377E-02         9.6190E-03       8.7083E-01
        2            5.6221E+01         1.0000E-09       8.7083E-01
 ======================================================================
 ITERATION STEP   3
 CPU time [min]:     0.486                   Wall time [min]:     0.016
 

 SCF control                  : diis
 Damping factor/level shift   : 0.000/0.000
 DIIS [start/end/frequency]   :   2 /200 /  1

 Constructing Fock-matrix...
 
 Pipek-Mezey localization...
 Step  Convergence
   1   0.030208774509
   2   0.028986920330
   3   0.000065071939
   4   0.000000105991
   5   0.000000001810
 CPU time [min]:     0.509                   Wall time [min]:     0.016
 
 Constructing local fitting domains...
 Local fitting domains are unchanged.
 
 First step of Coulomb + first step of exchange...
 Exchange contribution is evaluated for MOs 1 to 5.
   1% done.
  14% done.
  27% done.
  43% done.
  62% done.
  75% done.
  88% done.
 100% done.
 Fitting and assembly step of exchange...
 CPU time [min]:     0.646                   Wall time [min]:     0.018
 
 Second step of Coulomb...
   1% done.
  14% done.
  27% done.
  43% done.
  62% done.
  75% done.
  88% done.
 100% done.
 CPU time [min]:     0.689                   Wall time [min]:     0.019
 
 Gradient norm:      9.9659E-03
 DIIS is running in this iteration step.
 RMS of [F,P]:                                         0.00008785115757
 RMS of difference density:                            0.00026895172099
 Gap [au]:  0.45617808
 ALPHA OCC:   5
 BETA  OCC:   5
 
 ***HARTREE-FOCK ENERGY IN STEP   3 IS        -56.2223458089284591 [AU]
 
 Step comparison  Energy Drift [au]  DIIS error drift  Gradient drift
        2            9.3857E-04         2.6211E-04       4.2948E-02
 ======================================================================
 ITERATION STEP   4
 CPU time [min]:     0.712                   Wall time [min]:     0.019
 

 SCF control                  : diis
 Damping factor/level shift   : 0.000/0.000
 DIIS [start/end/frequency]   :   2 /200 /  1

 Constructing Fock-matrix...
 
 Pipek-Mezey localization...
 Step  Convergence
   1   0.019937224784
   2   0.019618363918
   3   0.000003727055
   4   0.000000028611
   5   0.000000000376
 CPU time [min]:     0.734                   Wall time [min]:     0.020
 
 Constructing local fitting domains...
 Local fitting domains are unchanged.
 
 First step of Coulomb + first step of exchange...
 Exchange contribution is evaluated for MOs 1 to 5.
   1% done.
  14% done.
  27% done.
  43% done.
  62% done.
  75% done.
  88% done.
 100% done.
 Fitting and assembly step of exchange...
 CPU time [min]:     0.854                   Wall time [min]:     0.022
 
 Second step of Coulomb...
   1% done.
  14% done.
  27% done.
  43% done.
  62% done.
  75% done.
  88% done.
 100% done.
 CPU time [min]:     0.896                   Wall time [min]:     0.022
 
 Gradient norm:      4.2187E-03
 DIIS is running in this iteration step.
 RMS of [F,P]:                                         0.00003329894036
 RMS of difference density:                            0.00006530730962
 Gap [au]:  0.45411863
 ALPHA OCC:   5
 BETA  OCC:   5
 
 ***HARTREE-FOCK ENERGY IN STEP   4 IS        -56.2224811474793711 [AU]
 
 Step comparison  Energy Drift [au]  DIIS error drift  Gradient drift
        3            1.3534E-04         5.4552E-05       5.7471E-03
 ======================================================================
 ITERATION STEP   5
 CPU time [min]:     0.919                   Wall time [min]:     0.023
 

 SCF control                  : diis
 Damping factor/level shift   : 0.000/0.000
 DIIS [start/end/frequency]   :   2 /200 /  1

 Constructing Fock-matrix...
 
 Pipek-Mezey localization...
 Step  Convergence
   1   0.040846141534
   2   0.036192059577
   3   0.000390895767
   4   0.000006494244
   5   0.000000175961
   6   0.000000005364
 CPU time [min]:     0.942                   Wall time [min]:     0.023
 
 Constructing local fitting domains...
 Local fitting domains are unchanged.
 
 First step of Coulomb + first step of exchange...
 Exchange contribution is evaluated for MOs 1 to 5.
   1% done.
  14% done.
  27% done.
  43% done.
  62% done.
  75% done.
  88% done.
 100% done.
 Fitting and assembly step of exchange...
 CPU time [min]:     1.062                   Wall time [min]:     0.025
 
 Second step of Coulomb...
   1% done.
  14% done.
  27% done.
  43% done.
  62% done.
  75% done.
  88% done.
 100% done.
 CPU time [min]:     1.104                   Wall time [min]:     0.026
 
 Gradient norm:      1.3677E-03
 DIIS is running in this iteration step.
 RMS of [F,P]:                                         0.00001639533450
 RMS of difference density:                            0.00003325739436
 Gap [au]:  0.45433702
 ALPHA OCC:   5
 BETA  OCC:   5
 
 ***HARTREE-FOCK ENERGY IN STEP   5 IS        -56.2224991888269017 [AU]
 
 Step comparison  Energy Drift [au]  DIIS error drift  Gradient drift
        4            1.8041E-05         1.6904E-05       2.8510E-03
 ======================================================================
 ITERATION STEP   6
 CPU time [min]:     1.128                   Wall time [min]:     0.026
 

 SCF control                  : diis
 Damping factor/level shift   : 0.000/0.000
 DIIS [start/end/frequency]   :   2 /200 /  1

 Constructing Fock-matrix...
 
 Pipek-Mezey localization...
 Step  Convergence
   1   0.042080558520
   2   0.038851604172
   3   0.000342617598
   4   0.000006813731
   5   0.000000183169
   6   0.000000005525
   7   0.000000000176
   8   0.000000000006
   9   0.000000000000
 CPU time [min]:     1.151                   Wall time [min]:     0.027
 
 Constructing local fitting domains...
 Local fitting domains are unchanged.
 
 First step of Coulomb + first step of exchange...
 Exchange contribution is evaluated for MOs 1 to 5.
   1% done.
  14% done.
  27% done.
  43% done.
  62% done.
  75% done.
  88% done.
 100% done.
 Fitting and assembly step of exchange...
 CPU time [min]:     1.271                   Wall time [min]:     0.029
 
 Second step of Coulomb...
   1% done.
  14% done.
  27% done.
  43% done.
  62% done.
  75% done.
  88% done.
 100% done.
 CPU time [min]:     1.314                   Wall time [min]:     0.029
 
 Gradient norm:      4.1087E-04
 DIIS is running in this iteration step.
 RMS of [F,P]:                                         0.00000258566656
 RMS of difference density:                            0.00000646456221
 Gap [au]:  0.45416060
 ALPHA OCC:   5
 BETA  OCC:   5
 
 ***HARTREE-FOCK ENERGY IN STEP   6 IS        -56.2225025751342358 [AU]
 
 Step comparison  Energy Drift [au]  DIIS error drift  Gradient drift
        5            3.3863E-06         1.3810E-05       9.5683E-04
 ======================================================================
 ITERATION STEP   7
 CPU time [min]:     1.337                   Wall time [min]:     0.030
 

 SCF control                  : diis
 Damping factor/level shift   : 0.000/0.000
 DIIS [start/end/frequency]   :   2 /200 /  1

 Constructing Fock-matrix...
 
 Pipek-Mezey localization...
 Step  Convergence
   1   0.042010122141
   2   0.039573767432
   3   0.000347635799
   4   0.000007668833
   5   0.000000207748
   6   0.000000006319
   7   0.000000000214
   8   0.000000000007
   9   0.000000000000
 CPU time [min]:     1.360                   Wall time [min]:     0.030
 
 Constructing local fitting domains...
 Local fitting domains are unchanged.
 
 First step of Coulomb + first step of exchange...
 Exchange contribution is evaluated for MOs 1 to 5.
   1% done.
  14% done.
  27% done.
  43% done.
  62% done.
  75% done.
  88% done.
 100% done.
 Fitting and assembly step of exchange...
 CPU time [min]:     1.478                   Wall time [min]:     0.032
 
 Second step of Coulomb...
   1% done.
  14% done.
  27% done.
  43% done.
  62% done.
  75% done.
  88% done.
 100% done.
 CPU time [min]:     1.520                   Wall time [min]:     0.033
 
 Gradient norm:      4.4551E-05
 DIIS is running in this iteration step.
 RMS of [F,P]:                                         0.00000035635980
 RMS of difference density:                            0.00000086272625
 Gap [au]:  0.45415599
 ALPHA OCC:   5
 BETA  OCC:   5
 
 ***HARTREE-FOCK ENERGY IN STEP   7 IS        -56.2225026538103521 [AU]
 
 Step comparison  Energy Drift [au]  DIIS error drift  Gradient drift
        6            7.8676E-08         2.2293E-06       3.6632E-04
 ======================================================================
 ITERATION STEP   8
 CPU time [min]:     1.545                   Wall time [min]:     0.033
 

 SCF control                  : diis
 Damping factor/level shift   : 0.000/0.000
 DIIS [start/end/frequency]   :   2 /200 /  1

 Constructing Fock-matrix...
 
 Pipek-Mezey localization...
 Step  Convergence
   1   0.042071559612
   2   0.039172514982
   3   0.000368253215
   4   0.000007836653
   5   0.000000248144
   6   0.000000006942
   7   0.000000000223
   8   0.000000000007
   9   0.000000000000
 CPU time [min]:     1.568                   Wall time [min]:     0.033
 
 Constructing local fitting domains...
 Local fitting domains are unchanged.
 
 First step of Coulomb + first step of exchange...
 Exchange contribution is evaluated for MOs 1 to 5.
   1% done.
  14% done.
  27% done.
  43% done.
  62% done.
  75% done.
  88% done.
 100% done.
 Fitting and assembly step of exchange...
 CPU time [min]:     1.686                   Wall time [min]:     0.035
 
 Second step of Coulomb...
   1% done.
  14% done.
  27% done.
  43% done.
  62% done.
  75% done.
  88% done.
 100% done.
 CPU time [min]:     1.728                   Wall time [min]:     0.036
 
 Gradient norm:      1.7002E-05
 DIIS is running in this iteration step.
 RMS of [F,P]:                                         0.00000012683591
 RMS of difference density:                            0.00000027892940
 Gap [au]:  0.45415602
 ALPHA OCC:   5
 BETA  OCC:   5
 
 ***HARTREE-FOCK ENERGY IN STEP   8 IS        -56.2225026565240285 [AU]
 
 Step comparison  Energy Drift [au]  DIIS error drift  Gradient drift
        7            2.7137E-09         2.2952E-07       2.7549E-05
 ======================================================================
 ITERATION STEP   9
 CPU time [min]:     1.752                   Wall time [min]:     0.036
 

 SCF control                  : diis
 Damping factor/level shift   : 0.000/0.000
 DIIS [start/end/frequency]   :   2 /200 /  1

 Constructing Fock-matrix...
 
 Pipek-Mezey localization...
 Step  Convergence
   1   0.042060103295
   2   0.038890179633
   3   0.000349021081
   4   0.000006909475
   5   0.000000214213
   6   0.000000005904
   7   0.000000000198
   8   0.000000000006
   9   0.000000000000
 CPU time [min]:     1.775                   Wall time [min]:     0.037
 
 Constructing local fitting domains...
 Local fitting domains are unchanged.
 
 First step of Coulomb + first step of exchange...
 Exchange contribution is evaluated for MOs 1 to 5.
   1% done.
  14% done.
  27% done.
  43% done.
  62% done.
  75% done.
  88% done.
 100% done.
 Fitting and assembly step of exchange...
 CPU time [min]:     1.894                   Wall time [min]:     0.039
 
 Second step of Coulomb...
   1% done.
  14% done.
  27% done.
  43% done.
  62% done.
  75% done.
  88% done.
 100% done.
 CPU time [min]:     1.936                   Wall time [min]:     0.039
 
 Gradient norm:      4.0463E-06
 DIIS is running in this iteration step.
 RMS of [F,P]:                                         0.00000002950938
 RMS of difference density:                            0.00000008104101
 Gap [au]:  0.45415585
 ALPHA OCC:   5
 BETA  OCC:   5
 
 ***HARTREE-FOCK ENERGY IN STEP   9 IS        -56.2225026568725781 [AU]
 
 Step comparison  Energy Drift [au]  DIIS error drift  Gradient drift
        8            3.4855E-10         9.7327E-08       1.2956E-05
 ======================================================================
 ITERATION STEP  10
 CPU time [min]:     1.959                   Wall time [min]:     0.040
 

 SCF control                  : diis
 Damping factor/level shift   : 0.000/0.000
 DIIS [start/end/frequency]   :   2 /200 /  1

 Constructing Fock-matrix...
 
 Pipek-Mezey localization...
 Step  Convergence
   1   0.042269168940
   2   0.038565023662
   3   0.000348437866
   4   0.000006991287
   5   0.000000205100
   6   0.000000006228
   7   0.000000000195
   8   0.000000000006
   9   0.000000000000
 CPU time [min]:     1.982                   Wall time [min]:     0.040
 
 Constructing local fitting domains...
 Local fitting domains are unchanged.
 
 First step of Coulomb + first step of exchange...
 Exchange contribution is evaluated for MOs 1 to 5.
   1% done.
  14% done.
  27% done.
  43% done.
  62% done.
  75% done.
  88% done.
 100% done.
 Fitting and assembly step of exchange...
 CPU time [min]:     2.103                   Wall time [min]:     0.042
 
 Second step of Coulomb...
   1% done.
  14% done.
  27% done.
  43% done.
  62% done.
  75% done.
  88% done.
 100% done.
 CPU time [min]:     2.145                   Wall time [min]:     0.043
 
 Gradient norm:      2.5434E-07
 DIIS is running in this iteration step.
 RMS of [F,P]:                                         0.00000000232364
 RMS of difference density:                            0.00000001588506
 Gap [au]:  0.45415584
 ALPHA OCC:   5
 BETA  OCC:   5
 
 ***HARTREE-FOCK ENERGY IN STEP  10 IS        -56.2225026568949602 [AU]
 
 Step comparison  Energy Drift [au]  DIIS error drift  Gradient drift
        9            2.2382E-11         2.7186E-08       3.7920E-06
 ======================================================================
 ITERATION STEP  11
 CPU time [min]:     2.170                   Wall time [min]:     0.043
 

 SCF control                  : diis
 Damping factor/level shift   : 0.000/0.000
 DIIS [start/end/frequency]   :   2 /200 /  1

 Constructing Fock-matrix...
 
 Pipek-Mezey localization...
 Step  Convergence
   1   0.041336037770
   2   0.038535141993
   3   0.000350164125
   4   0.000007080632
   5   0.000000195277
   6   0.000000006087
   7   0.000000000191
   8   0.000000000006
   9   0.000000000000
 CPU time [min]:     2.193                   Wall time [min]:     0.044
 
 Constructing local fitting domains...
 Local fitting domains are unchanged.
 
 First step of Coulomb + first step of exchange...
 Exchange contribution is evaluated for MOs 1 to 5.
   1% done.
  14% done.
  27% done.
  43% done.
  62% done.
  75% done.
  88% done.
 100% done.
 Fitting and assembly step of exchange...
 CPU time [min]:     2.311                   Wall time [min]:     0.046
 
 Second step of Coulomb...
   1% done.
  14% done.
  27% done.
  43% done.
  62% done.
  75% done.
  88% done.
 100% done.
 CPU time [min]:     2.354                   Wall time [min]:     0.046
 
 Gradient norm:      2.0415E-08
 DIIS is running in this iteration step.
 RMS of [F,P]:                                         0.00000000022852
 RMS of difference density:                            0.00000000088208
 Gap [au]:  0.45415585
 ALPHA OCC:   5
 BETA  OCC:   5
 
 ***HARTREE-FOCK ENERGY IN STEP  11 IS        -56.2225026568950170 [AU]
 
 Step comparison  Energy Drift [au]  DIIS error drift  Gradient drift
       10            5.6843E-14         2.0951E-09       2.3393E-07
 
 The SCF iteration has converged.
 An extra iteration will be performed to calculate accurate SCF energy.
 
 ======================================================================
 ITERATION STEP  12
 CPU time [min]:     2.380                   Wall time [min]:     0.047
 

 SCF control                  : diis
 Damping factor/level shift   : 0.000/0.000
 DIIS [start/end/frequency]   :   2 /200 /  1

 Constructing Fock-matrix...
 
 Pipek-Mezey localization...
 Step  Convergence
   1   0.042011674820
   2   0.038999900014
   3   0.000369776012
   4   0.000007901451
   5   0.000000218701
   6   0.000000006882
   7   0.000000000216
   8   0.000000000007
   9   0.000000000000
 CPU time [min]:     2.403                   Wall time [min]:     0.047
 
 Constructing local fitting domains...
 Local fitting domains are unchanged.
 
 First step of Coulomb + first step of exchange...
 Exchange contribution is evaluated for MOs 1 to 5.
   1% done.
  14% done.
  27% done.
  43% done.
  62% done.
  75% done.
  88% done.
 100% done.
 Fitting and assembly step of exchange...
 CPU time [min]:     2.523                   Wall time [min]:     0.049
 
 Second step of Coulomb...
   1% done.
  14% done.
  27% done.
  43% done.
  62% done.
  75% done.
  88% done.
 100% done.
 CPU time [min]:     2.565                   Wall time [min]:     0.050
 
 Gradient norm:      4.8480E-09
 RMS of [F,P]:                                         0.00000000005771
 RMS of difference density:                            0.00000000013770
 Gap [au]:  0.45415584
 ALPHA OCC:   5
 BETA  OCC:   5
 
 ***HARTREE-FOCK ENERGY IN STEP  12 IS        -56.2225026568950597 [AU]
 
 Step comparison  Energy Drift [au]  DIIS error drift  Gradient drift
       11            4.2633E-14         1.7081E-10       1.5567E-08
 ======================================================================
 
 SUCCESS...
 THE SCF ITERATION HAS CONVERGED!
 
                   A   
 FINAL ALPHA OCC:   5
 FINAL BETA  OCC:   5
 
 ***FINAL HARTREE-FOCK ENERGY:        -56.2225026568950597 [AU]
 
 Orbital energies [au]:
      Irrep         Alpha          Beta
    1   A        -15.544729     -15.544729
    2   A         -1.133942      -1.133942
    3   A         -0.623507      -0.623507
    4   A         -0.623475      -0.623475
    5   A         -0.427648      -0.427648
 
    6   A          0.026508       0.026508
    7   A          0.043769       0.043769
    8   A          0.043769       0.043769
    9   A          0.098150       0.098150
   10   A          0.131665       0.131665
   11   A          0.139410       0.139410
   12   A          0.139410       0.139410
   13   A          0.183211       0.183211
   14   A          0.183213       0.183213
   15   A          0.188377       0.188377
   16   A          0.188379       0.188379
   17   A          0.209468       0.209468
   18   A          0.283032       0.283032
   19   A          0.293037       0.293037
   20   A          0.297303       0.297303
   21   A          0.297303       0.297303
   22   A          0.352123       0.352123
   23   A          0.381140       0.381140
   24   A          0.381150       0.381150
   25   A          0.388485       0.388485
   26   A          0.388487       0.388487
   27   A          0.422399       0.422399
   28   A          0.473740       0.473740
   29   A          0.473743       0.473743
   30   A          0.558863       0.558863
   31   A          0.558870       0.558870
   32   A          0.559951       0.559951
   33   A          0.593086       0.593086
   34   A          0.683580       0.683580
   35   A          0.683583       0.683583
   36   A          0.698046       0.698046
   37   A          0.698510       0.698510
   38   A          0.716532       0.716532
   39   A          0.716532       0.716532
   40   A          0.749951       0.749951
   41   A          0.777384       0.777384
   42   A          0.777404       0.777404
   43   A          0.777811       0.777811
   44   A          0.828540       0.828540
   45   A          0.828546       0.828546
   46   A          0.847300       0.847300
   47   A          0.858401       0.858401
   48   A          0.858405       0.858405
   49   A          0.873167       0.873167
   50   A          0.873178       0.873178
   51   A          0.980741       0.980741
   52   A          1.015842       1.015842
   53   A          1.015854       1.015854
   54   A          1.134240       1.134240
   55   A          1.225088       1.225088
   56   A          1.225091       1.225091
   57   A          1.350651       1.350651
   58   A          1.350658       1.350658
   59   A          1.354602       1.354602
   60   A          1.369945       1.369945
   61   A          1.372372       1.372372
   62   A          1.447996       1.447996
[...]
  205   A         10.895244      10.895244
  206   A         11.611991      11.611991
  207   A         12.087140      12.087140
  208   A         12.087347      12.087347
  209   A         12.137561      12.137561
  210   A         12.232241      12.232241
  211   A         12.232614      12.232614
  212   A         12.904861      12.904861
  213   A         13.021480      13.021480
  214   A         13.021754      13.021754
  215   A         14.656607      14.656607
  216   A         14.897053      14.897053
  217   A         14.897504      14.897504
  218   A         36.321884      36.321884
 
 RETURNING FROM SCF ALGORITHM
 ======================================================================

 ************************ 2026-02-26 16:04:05 *************************
 Executing integ...

 Allocation of 46.0 Gbytes of memory...
 
 
 Basis set information:
 
 Maximum angular momentum: h
 Maximum number of contracted Gaussians:   11
 Maximum number of primitive Gaussians:    14
 Spherical harmonic GTOs are used.
 
 
 Conventional basis set:
 
   1  N  aug-cc-pvqz [ 13s 7p 4d 3f 2g | 6s 5p 4d 3f 2g ]
   2  H  aug-cc-pvqz [ 7s 4p 3d 2f | 5s 4p 3d 2f ]
   3  H  aug-cc-pvqz [ 7s 4p 3d 2f | 5s 4p 3d 2f ]
   4  H  aug-cc-pvqz [ 7s 4p 3d 2f | 5s 4p 3d 2f ]
 
 Basis functions:
            1             2             3             4             5             6             7             8             9            10
    0    1N1s          1N2s          1N3s          1N4s          1N5s          1N6s          1N1pz         1N1py         1N1px         1N2pz     
    1    1N2py         1N2px         1N3pz         1N3py         1N3px         1N4pz         1N4py         1N4px         1N5pz         1N5py     
    2    1N5px         1N1d-2        1N1d-1        1N1d0         1N1d+1        1N1d+2        1N2d-2        1N2d-1        1N2d0         1N2d+1    
    3    1N2d+2        1N3d-2        1N3d-1        1N3d0         1N3d+1        1N3d+2        1N4d-2        1N4d-1        1N4d0         1N4d+1    
    4    1N4d+2        1N1f-3        1N1f-2        1N1f-1        1N1f0         1N1f+1        1N1f+2        1N1f+3        1N2f-3        1N2f-2    
    5    1N2f-1        1N2f0         1N2f+1        1N2f+2        1N2f+3        1N3f-3        1N3f-2        1N3f-1        1N3f0         1N3f+1    
    6    1N3f+2        1N3f+3        1N1g-4        1N1g-3        1N1g-2        1N1g-1        1N1g0         1N1g+1        1N1g+2        1N1g+3    
    7    1N1g+4        1N2g-4        1N2g-3        1N2g-2        1N2g-1        1N2g0         1N2g+1        1N2g+2        1N2g+3        1N2g+4    
    8    2H1s          2H2s          2H3s          2H4s          2H5s          2H1pz         2H1py         2H1px         2H2pz         2H2py     
    9    2H2px         2H3pz         2H3py         2H3px         2H4pz         2H4py         2H4px         2H1d-2        2H1d-1        2H1d0     
   10    2H1d+1        2H1d+2        2H2d-2        2H2d-1        2H2d0         2H2d+1        2H2d+2        2H3d-2        2H3d-1        2H3d0     
   11    2H3d+1        2H3d+2        2H1f-3        2H1f-2        2H1f-1        2H1f0         2H1f+1        2H1f+2        2H1f+3        2H2f-3    
   12    2H2f-2        2H2f-1        2H2f0         2H2f+1        2H2f+2        2H2f+3        3H1s          3H2s          3H3s          3H4s      
   13    3H5s          3H1pz         3H1py         3H1px         3H2pz         3H2py         3H2px         3H3pz         3H3py         3H3px     
   14    3H4pz         3H4py         3H4px         3H1d-2        3H1d-1        3H1d0         3H1d+1        3H1d+2        3H2d-2        3H2d-1    
   15    3H2d0         3H2d+1        3H2d+2        3H3d-2        3H3d-1        3H3d0         3H3d+1        3H3d+2        3H1f-3        3H1f-2    
   16    3H1f-1        3H1f0         3H1f+1        3H1f+2        3H1f+3        3H2f-3        3H2f-2        3H2f-1        3H2f0         3H2f+1    
   17    3H2f+2        3H2f+3        4H1s          4H2s          4H3s          4H4s          4H5s          4H1pz         4H1py         4H1px     
   18    4H2pz         4H2py         4H2px         4H3pz         4H3py         4H3px         4H4pz         4H4py         4H4px         4H1d-2    
   19    4H1d-1        4H1d0         4H1d+1        4H1d+2        4H2d-2        4H2d-1        4H2d0         4H2d+1        4H2d+2        4H3d-2    
   20    4H3d-1        4H3d0         4H3d+1        4H3d+2        4H1f-3        4H1f-2        4H1f-1        4H1f0         4H1f+1        4H1f+2    
   21    4H1f+3        4H2f-3        4H2f-2        4H2f-1        4H2f0         4H2f+1        4H2f+2        4H2f+3    
 
 Maximum number of basis functions per shell:   21
 Total number of basis functions:    218
 
 
 Fitting basis set for the SCF calculation:
 
   1  N  aug-cc-pvqz-ri-jk [ 11s 8p 6d 4f 3g 2h | 11s 8p 6d 4f 3g 2h ]
   2  H  aug-cc-pvqz-ri-jk [ 5s 4p 4d 3f 2g | 5s 4p 4d 3f 2g ]
   3  H  aug-cc-pvqz-ri-jk [ 5s 4p 4d 3f 2g | 5s 4p 4d 3f 2g ]
   4  H  aug-cc-pvqz-ri-jk [ 5s 4p 4d 3f 2g | 5s 4p 4d 3f 2g ]
 
 Basis functions:
            1             2             3             4             5             6             7             8             9            10
    0    1N1s          1N2s          1N3s          1N4s          1N5s          1N6s          1N7s          1N8s          1N9s          1N10s     
    1    1N11s         1N1pz         1N1py         1N1px         1N2pz         1N2py         1N2px         1N3pz         1N3py         1N3px     
    2    1N4pz         1N4py         1N4px         1N5pz         1N5py         1N5px         1N6pz         1N6py         1N6px         1N7pz     
    3    1N7py         1N7px         1N8pz         1N8py         1N8px         1N1d-2        1N1d-1        1N1d0         1N1d+1        1N1d+2    
    4    1N2d-2        1N2d-1        1N2d0         1N2d+1        1N2d+2        1N3d-2        1N3d-1        1N3d0         1N3d+1        1N3d+2    
    5    1N4d-2        1N4d-1        1N4d0         1N4d+1        1N4d+2        1N5d-2        1N5d-1        1N5d0         1N5d+1        1N5d+2    
    6    1N6d-2        1N6d-1        1N6d0         1N6d+1        1N6d+2        1N1f-3        1N1f-2        1N1f-1        1N1f0         1N1f+1    
    7    1N1f+2        1N1f+3        1N2f-3        1N2f-2        1N2f-1        1N2f0         1N2f+1        1N2f+2        1N2f+3        1N3f-3    
    8    1N3f-2        1N3f-1        1N3f0         1N3f+1        1N3f+2        1N3f+3        1N4f-3        1N4f-2        1N4f-1        1N4f0     
    9    1N4f+1        1N4f+2        1N4f+3        1N1g-4        1N1g-3        1N1g-2        1N1g-1        1N1g0         1N1g+1        1N1g+2    
   10    1N1g+3        1N1g+4        1N2g-4        1N2g-3        1N2g-2        1N2g-1        1N2g0         1N2g+1        1N2g+2        1N2g+3    
   11    1N2g+4        1N3g-4        1N3g-3        1N3g-2        1N3g-1        1N3g0         1N3g+1        1N3g+2        1N3g+3        1N3g+4    
   12    1N1h-5        1N1h-4        1N1h-3        1N1h-2        1N1h-1        1N1h0         1N1h+1        1N1h+2        1N1h+3        1N1h+4    
   13    1N1h+5        1N2h-5        1N2h-4        1N2h-3        1N2h-2        1N2h-1        1N2h0         1N2h+1        1N2h+2        1N2h+3    
   14    1N2h+4        1N2h+5        2H1s          2H2s          2H3s          2H4s          2H5s          2H1pz         2H1py         2H1px     
   15    2H2pz         2H2py         2H2px         2H3pz         2H3py         2H3px         2H4pz         2H4py         2H4px         2H1d-2    
   16    2H1d-1        2H1d0         2H1d+1        2H1d+2        2H2d-2        2H2d-1        2H2d0         2H2d+1        2H2d+2        2H3d-2    
   17    2H3d-1        2H3d0         2H3d+1        2H3d+2        2H4d-2        2H4d-1        2H4d0         2H4d+1        2H4d+2        2H1f-3    
   18    2H1f-2        2H1f-1        2H1f0         2H1f+1        2H1f+2        2H1f+3        2H2f-3        2H2f-2        2H2f-1        2H2f0     
   19    2H2f+1        2H2f+2        2H2f+3        2H3f-3        2H3f-2        2H3f-1        2H3f0         2H3f+1        2H3f+2        2H3f+3    
   20    2H1g-4        2H1g-3        2H1g-2        2H1g-1        2H1g0         2H1g+1        2H1g+2        2H1g+3        2H1g+4        2H2g-4    
   21    2H2g-3        2H2g-2        2H2g-1        2H2g0         2H2g+1        2H2g+2        2H2g+3        2H2g+4        3H1s          3H2s      
   22    3H3s          3H4s          3H5s          3H1pz         3H1py         3H1px         3H2pz         3H2py         3H2px         3H3pz     
   23    3H3py         3H3px         3H4pz         3H4py         3H4px         3H1d-2        3H1d-1        3H1d0         3H1d+1        3H1d+2    
   24    3H2d-2        3H2d-1        3H2d0         3H2d+1        3H2d+2        3H3d-2        3H3d-1        3H3d0         3H3d+1        3H3d+2    
   25    3H4d-2        3H4d-1        3H4d0         3H4d+1        3H4d+2        3H1f-3        3H1f-2        3H1f-1        3H1f0         3H1f+1    
   26    3H1f+2        3H1f+3        3H2f-3        3H2f-2        3H2f-1        3H2f0         3H2f+1        3H2f+2        3H2f+3        3H3f-3    
   27    3H3f-2        3H3f-1        3H3f0         3H3f+1        3H3f+2        3H3f+3        3H1g-4        3H1g-3        3H1g-2        3H1g-1    
   28    3H1g0         3H1g+1        3H1g+2        3H1g+3        3H1g+4        3H2g-4        3H2g-3        3H2g-2        3H2g-1        3H2g0     
   29    3H2g+1        3H2g+2        3H2g+3        3H2g+4        4H1s          4H2s          4H3s          4H4s          4H5s          4H1pz     
   30    4H1py         4H1px         4H2pz         4H2py         4H2px         4H3pz         4H3py         4H3px         4H4pz         4H4py     
   31    4H4px         4H1d-2        4H1d-1        4H1d0         4H1d+1        4H1d+2        4H2d-2        4H2d-1        4H2d0         4H2d+1    
   32    4H2d+2        4H3d-2        4H3d-1        4H3d0         4H3d+1        4H3d+2        4H4d-2        4H4d-1        4H4d0         4H4d+1    
   33    4H4d+2        4H1f-3        4H1f-2        4H1f-1        4H1f0         4H1f+1        4H1f+2        4H1f+3        4H2f-3        4H2f-2    
   34    4H2f-1        4H2f0         4H2f+1        4H2f+2        4H2f+3        4H3f-3        4H3f-2        4H3f-1        4H3f0         4H3f+1    
   35    4H3f+2        4H3f+3        4H1g-4        4H1g-3        4H1g-2        4H1g-1        4H1g0         4H1g+1        4H1g+2        4H1g+3    
   36    4H1g+4        4H2g-4        4H2g-3        4H2g-2        4H2g-1        4H2g0         4H2g+1        4H2g+2        4H2g+3        4H2g+4    
 
 Maximum number of basis functions per shell:   30
 Total number of basis functions:    370
 
 
 Fitting basis set for the correlation calculation:
 
   1  N  aug-cc-pvqz-ri [ 9s 8p 7d 6f 4g 2h | 9s 8p 7d 6f 4g 2h ]
   2  H  aug-cc-pvqz-ri [ 6s 5p 4d 3f 2g | 6s 5p 4d 3f 2g ]
   3  H  aug-cc-pvqz-ri [ 6s 5p 4d 3f 2g | 6s 5p 4d 3f 2g ]
   4  H  aug-cc-pvqz-ri [ 6s 5p 4d 3f 2g | 6s 5p 4d 3f 2g ]
 
 Basis functions:
            1             2             3             4             5             6             7             8             9            10
    0    1N1s          1N2s          1N3s          1N4s          1N5s          1N6s          1N7s          1N8s          1N9s          1N1pz     
    1    1N1py         1N1px         1N2pz         1N2py         1N2px         1N3pz         1N3py         1N3px         1N4pz         1N4py     
    2    1N4px         1N5pz         1N5py         1N5px         1N6pz         1N6py         1N6px         1N7pz         1N7py         1N7px     
    3    1N8pz         1N8py         1N8px         1N1d-2        1N1d-1        1N1d0         1N1d+1        1N1d+2        1N2d-2        1N2d-1    
    4    1N2d0         1N2d+1        1N2d+2        1N3d-2        1N3d-1        1N3d0         1N3d+1        1N3d+2        1N4d-2        1N4d-1    
    5    1N4d0         1N4d+1        1N4d+2        1N5d-2        1N5d-1        1N5d0         1N5d+1        1N5d+2        1N6d-2        1N6d-1    
    6    1N6d0         1N6d+1        1N6d+2        1N7d-2        1N7d-1        1N7d0         1N7d+1        1N7d+2        1N1f-3        1N1f-2    
    7    1N1f-1        1N1f0         1N1f+1        1N1f+2        1N1f+3        1N2f-3        1N2f-2        1N2f-1        1N2f0         1N2f+1    
    8    1N2f+2        1N2f+3        1N3f-3        1N3f-2        1N3f-1        1N3f0         1N3f+1        1N3f+2        1N3f+3        1N4f-3    
    9    1N4f-2        1N4f-1        1N4f0         1N4f+1        1N4f+2        1N4f+3        1N5f-3        1N5f-2        1N5f-1        1N5f0     
   10    1N5f+1        1N5f+2        1N5f+3        1N6f-3        1N6f-2        1N6f-1        1N6f0         1N6f+1        1N6f+2        1N6f+3    
   11    1N1g-4        1N1g-3        1N1g-2        1N1g-1        1N1g0         1N1g+1        1N1g+2        1N1g+3        1N1g+4        1N2g-4    
   12    1N2g-3        1N2g-2        1N2g-1        1N2g0         1N2g+1        1N2g+2        1N2g+3        1N2g+4        1N3g-4        1N3g-3    
   13    1N3g-2        1N3g-1        1N3g0         1N3g+1        1N3g+2        1N3g+3        1N3g+4        1N4g-4        1N4g-3        1N4g-2    
   14    1N4g-1        1N4g0         1N4g+1        1N4g+2        1N4g+3        1N4g+4        1N1h-5        1N1h-4        1N1h-3        1N1h-2    
   15    1N1h-1        1N1h0         1N1h+1        1N1h+2        1N1h+3        1N1h+4        1N1h+5        1N2h-5        1N2h-4        1N2h-3    
   16    1N2h-2        1N2h-1        1N2h0         1N2h+1        1N2h+2        1N2h+3        1N2h+4        1N2h+5        2H1s          2H2s      
   17    2H3s          2H4s          2H5s          2H6s          2H1pz         2H1py         2H1px         2H2pz         2H2py         2H2px     
   18    2H3pz         2H3py         2H3px         2H4pz         2H4py         2H4px         2H5pz         2H5py         2H5px         2H1d-2    
   19    2H1d-1        2H1d0         2H1d+1        2H1d+2        2H2d-2        2H2d-1        2H2d0         2H2d+1        2H2d+2        2H3d-2    
   20    2H3d-1        2H3d0         2H3d+1        2H3d+2        2H4d-2        2H4d-1        2H4d0         2H4d+1        2H4d+2        2H1f-3    
   21    2H1f-2        2H1f-1        2H1f0         2H1f+1        2H1f+2        2H1f+3        2H2f-3        2H2f-2        2H2f-1        2H2f0     
   22    2H2f+1        2H2f+2        2H2f+3        2H3f-3        2H3f-2        2H3f-1        2H3f0         2H3f+1        2H3f+2        2H3f+3    
   23    2H1g-4        2H1g-3        2H1g-2        2H1g-1        2H1g0         2H1g+1        2H1g+2        2H1g+3        2H1g+4        2H2g-4    
   24    2H2g-3        2H2g-2        2H2g-1        2H2g0         2H2g+1        2H2g+2        2H2g+3        2H2g+4        3H1s          3H2s      
   25    3H3s          3H4s          3H5s          3H6s          3H1pz         3H1py         3H1px         3H2pz         3H2py         3H2px     
   26    3H3pz         3H3py         3H3px         3H4pz         3H4py         3H4px         3H5pz         3H5py         3H5px         3H1d-2    
   27    3H1d-1        3H1d0         3H1d+1        3H1d+2        3H2d-2        3H2d-1        3H2d0         3H2d+1        3H2d+2        3H3d-2    
   28    3H3d-1        3H3d0         3H3d+1        3H3d+2        3H4d-2        3H4d-1        3H4d0         3H4d+1        3H4d+2        3H1f-3    
   29    3H1f-2        3H1f-1        3H1f0         3H1f+1        3H1f+2        3H1f+3        3H2f-3        3H2f-2        3H2f-1        3H2f0     
   30    3H2f+1        3H2f+2        3H2f+3        3H3f-3        3H3f-2        3H3f-1        3H3f0         3H3f+1        3H3f+2        3H3f+3    
   31    3H1g-4        3H1g-3        3H1g-2        3H1g-1        3H1g0         3H1g+1        3H1g+2        3H1g+3        3H1g+4        3H2g-4    
   32    3H2g-3        3H2g-2        3H2g-1        3H2g0         3H2g+1        3H2g+2        3H2g+3        3H2g+4        4H1s          4H2s      
   33    4H3s          4H4s          4H5s          4H6s          4H1pz         4H1py         4H1px         4H2pz         4H2py         4H2px     
   34    4H3pz         4H3py         4H3px         4H4pz         4H4py         4H4px         4H5pz         4H5py         4H5px         4H1d-2    
   35    4H1d-1        4H1d0         4H1d+1        4H1d+2        4H2d-2        4H2d-1        4H2d0         4H2d+1        4H2d+2        4H3d-2    
   36    4H3d-1        4H3d0         4H3d+1        4H3d+2        4H4d-2        4H4d-1        4H4d0         4H4d+1        4H4d+2        4H1f-3    
   37    4H1f-2        4H1f-1        4H1f0         4H1f+1        4H1f+2        4H1f+3        4H2f-3        4H2f-2        4H2f-1        4H2f0     
   38    4H2f+1        4H2f+2        4H2f+3        4H3f-3        4H3f-2        4H3f-1        4H3f0         4H3f+1        4H3f+2        4H3f+3    
   39    4H1g-4        4H1g-3        4H1g-2        4H1g-1        4H1g0         4H1g+1        4H1g+2        4H1g+3        4H1g+4        4H2g-4    
   40    4H2g-3        4H2g-2        4H2g-1        4H2g0         4H2g+1        4H2g+2        4H2g+3        4H2g+4    
 
 Maximum number of basis functions per shell:   42
 Total number of basis functions:    408
 
 
 Old basis set for SCF restart
 
   1  N  def2-svp [ 7s 4p 1d | 3s 2p 1d ]
   2  H  def2-svp [ 4s 1p | 2s 1p ]
   3  H  def2-svp [ 4s 1p | 2s 1p ]
   4  H  def2-svp [ 4s 1p | 2s 1p ]
 
 Basis functions:
            1             2             3             4             5             6             7             8             9            10
    0    1N1s          1N2s          1N3s          1N1pz         1N1py         1N1px         1N2pz         1N2py         1N2px         1N1d-2    
    1    1N1d-1        1N1d0         1N1d+1        1N1d+2        2H1s          2H2s          2H1pz         2H1py         2H1px         3H1s      
    2    3H2s          3H1pz         3H1py         3H1px         4H1s          4H2s          4H1pz         4H1py         4H1px     
 
 Maximum number of basis functions per shell:   42
 Total number of basis functions:     29
 
 
 Calculation of prescreening integrals...
 CPU time [min]:     0.229                   Wall time [min]:     0.007
 
 Calculation of two-center Coulomb integrals...
   1% done.
  13% done.
  26% done.
  37% done.
  50% done.
  65% done.
  82% done.
 100% done.
 CPU time [min]:     0.244                   Wall time [min]:     0.007
 
 Cholesky decomposition of the inverse of the two-center matrix...
 CPU time [min]:     0.267                   Wall time [min]:     0.007
 
 Calculation of three-center Coulomb integrals...
   1% done.
  14% done.
  27% done.
  43% done.
  62% done.
  75% done.
  88% done.
 100% done.
 CPU time [min]:     1.091                   Wall time [min]:     0.020

 ************************ 2026-02-26 16:04:06 *************************
 Executing drpa...

 Three-index integral transformation and DF-MP2 calculation
 Allocation of 46.0 Gbytes of memory...
 
 Minimal memory requirement for (ai|P) integrals:        5.4 MB

 Calculating (ai|P) integrals...
 Number of integral batches:    1
 Occupied indices per batch:    4
 
 Transforming integrals of batch 1...
 CPU time [min]:     0.141                   Wall time [min]:     0.007
 
 
 
 Reference energy [au]:                       -56.222502656895
 DF-MP2 singlet pair energy [au]:              -0.199868323520
 DF-MP2 triplet pair energy [au]:              -0.054710406210
 DF-SCS-MP2 correlation energy [au]:           -0.258078790294
 DF-SCS-MP2 energy [au]:                      -56.480581447189
 DF-SOS-MP2 correlation energy [au]:           -0.259828820576
 DF-SOS-MP2 energy [au]:                      -56.482331477471
 DF-MP2 correlation energy [au]:               -0.254578729730
 DF-MP2 energy [au]:                          -56.477081386625
 
 ************************ 2026-02-26 16:04:07 *************************
                      Normal termination of mrcc.
 **********************************************************************
