 **********************************************************************
                          MRCC program system
 **********************************************************************
 
                              Written by
     Mihaly Kallay, Peter R. Nagy, David Mester, Laszlo Gyevi-Nagy,
        Jozsef Csoka, P. Bernat Szabo, Zoltan Rolik, Gyula Samu,
     Jozsef Csontos, Bence Hegely, Adam Ganyecz, Istvan Ladjanszki,
       Lorant Szegedy, Bence Ladoczki, Klara Petrov, Mate Farkas,
                    Pal D. Mezei, and Reka A. Horvath
 
        Department of Physical Chemistry and Materials Science
            Budapest University of Technology and Economics
                  Budapest P.O.Box 91, H-1521 Hungary
 
                              www.mrcc.hu
 
                     Release date: August 28, 2023

 ************************ 2026-02-26 16:02:04 *************************
 Executing minp...

 Reading input from MINP...
 
 Input file:
 
charge=0
mult=1
calc=DF-MP2
basis=aug-cc-pV5Z
symm=off
verbosity=3
unit=angs
scfalg=locfit1
scfmaxit=200
scftol=8
basis_sm=def2-SVP
scfiguess=small
mem=46GB
geom=xyz
4

H      0.80328119605    0.26945480888   -0.52331519112
H      0.26953119605   -0.52331519112    0.80322480888
H     -0.52324880395    0.80323480888    0.26946480888
N     -0.03954880395   -0.03953519112   -0.03953519112
 
 
 Checking keyword combinations...
 
 Keywords:
 
 active=none
 agrid=ld0006-ld0590
 agrid_pssp=ld0006-ld0194
 agrid_pssp_sm=ld0006-ld0074
 basis=aug-cc-pv5z
 basis_sm=def2-svp
 basopt=off
 bfbasis=none
 bfgsmem=10
 bfgstol=1.0d-3
 boysalg=jacobi
 bpcompo=0.985
 bpcompv=0.98
 bpdfo=0.985
 bpocc=0.985
 bppdo=0.985
 bppdv=0.98
 bpedo=0.985
 bpedv=0.98
 calc=mp2
 ccmaxit=50
 ccprog=mrcc
 ccsdalg=disk
 ccsdmkl=seq
 ccsdrest=off
 ccsdthreads=2
 cctol=6
 charge=0
 cialg=disk
 ciguess=off
 cmpgrp=auto
 comprest=off
 coord_sys=ric
 core=frozen
 corembed=off
 csapprox=off
 cvs=off
 dboc=off
 delocsomofact=
 dendec=cholesky
 dens=0
 denscorr=0
 dfalg=lineq
 dfbasis_cab=none
 dfbasis_cor=auto
 dfbasis_scf=auto
 dfbasis_scf_sm=auto
 dfintran=drpa
 dft=off
 dhexc=adc(2)
 diag=david
 docc=
 domrad=10.d0
 drpaalg=fit
 dual=off
 dual_df=off
 ecp=auto
 edisp=off
 edisp_embed=off
 embed=off
 epairestfact=off
 epairscale=1.d0
 etemp=300
 epert=none
 eps=
 espcharge=off
 excrad=1.0
 excrad_fin=0.100000000D-02
 fitting=coulomb
 fmm=off
 fmmord=8
 fnonorb=
 freq=off
 gamma=1.4d0
 gauss=spher
 geom=xyz
 gopt=off
 ghost=none
 gtol=7
 grdens=off
 grid=auto
 grid_sm=auto
 gridbatch_cos=2000
 grtol=10
 guido_ct=off
 hamilton=dc
 iface=none
 intalg=auto
 ip_ea=off
 itol=12
 laptol=1.d-2
 lccoporder=trffirst
 lcorthr=normal
 lccrest=off
 ldfgrad_tol=8
 lmp2dens=on
 lnoepso=0.d0
 lnoepsv=1e-6
 localcc=off
 localcorrsymm=off
 locintrf=disk
 mact=
 maxact=off
 maxdim=200
 maxex=0
 maxmicroit=100
 mcscfiguess=hf
 mem=46gb
 mmprog=
 molden=on
 mpitasks=1
 mulmet=0
 mult=1
 nab=off
 nacto=0
 nactv=0
 naf_amp=3.16d-3
 naf_cor=off
 naf_f12=off
 naf_scf=off
 nafalg=albe
 nafdens=off
 naftyp=
 nchol=auto
 ndeps=1e-3
 nstate=1
 nsing=0
 nto=off
 ntrip=0
 num_grad=off
 occ=
 occri=off
 oniom=off
 oniom_eechg=off
 oniom_pcm=off
 oniom_qcorr=off
 optalg=
 optmaxit=50
 optetol=1e-6
 optex=0
 optgtol=1e-4
 optstol=1e-3
 orblocc=off
 orbloce=off
 orbloco=off
 orblocv=off
 orblocguess=cholesky
 osveps=1e-3
 ovirt=off
 ovltol=1e-7
 ovosnorb=80.0
 pao_subsys_tol=1e-3
 pcm=off
 popul=off
 pressure=100000
 pssp=off
 ptfreq=0.0
 ptthreads=2
 qmreg=
 qmmm=off
 qro=off
 qscf=off
 redcost_exc=off
 redcost_tddft=off
 refdet=none
 rest=0
 rgrid=log3
 rism=off
 rohfcore=semicanonical
 rohftype=semicanonical
 scfalg=locfit1
 scf_conv=auto
 scfdamp=0.0d0
 scfdamp_mode=off
 scfdamp_end=200
 scfdamp_dampstep=0.d0
 scfdamp_dtol=0.0d0
 scfdamp_maxfact=0.0d0
 scfdamp_minfact=0.0d0
 scfdiis=on
 scfdiis_dtol=0.0d0
 scfdiis_end=200
 scfdiis_start=2
 scfdiis_step=1
 scfdiis_watch=off
 scfdiis_wrange=10
 scfdiis_wlimit=5
 scfdiis_delmax=2
 scfdtol=9
 scfext=10
 scfguessdens=
 scfiguess=small
 scfloc=pm
 scflshift=0.20
 scflshift_end=8
 scflshift_dtol=0.0
 scflshift_gaptol=0.20
 scfmaxit=200
 scftype=
 scftol=8
 scspe=1.d0
 scsph=1.d0
 scsps=1.2d0
 scsps_t=1.2d0
 scspt=0.33333333333333
 scspt_t=0.33333333333333
 scspv=1.d0
 spairtol=1e-4
 sqmprog=
 subminp=top
 symm=0
 talg=occ
 temp=298.15
 test=off
 theodore=off
 tlmo=0.999
 tpao=0.94
 tprint=off
 uncontract=off
 unit=angs
 usedisk=2
 verbosity=3
 wpairtol=0.100000000E-05
 
 Calculating integrals for small-basis SCF...

 ************************ 2026-02-26 16:02:04 *************************
 Executing integ...

 Allocation of 46.0 Gbytes of memory...
 
 
 Number of atoms:                  4
 Charge:                           0
 Number of electrons:             10
 Number of core electrons:         2
 Spin multiplicity:                1
 
                 Cartesian coordinates [bohr]      Atomic mass [AMU]  Z
   1  H     1.51798146    0.50919579   -0.98892239     1.007825       1
   2  H     0.50934014   -0.98892239    1.51787491     1.007825       1
   3  H    -0.98879693    1.51789380    0.50921469     1.007825       1
   4  N    -0.07473641   -0.07471068   -0.07471068    14.003074       7
 
 This molecule is an asymmetric top.
 
 Rotational constants [cm-1]: 
      9.818547075435      9.818369386061      6.257416881345
 
 Point group: C1  
 Computational point group: C1  
 
 Cartesian coordinates in standard orientation [bohr]
   1  H     0.36472399    1.74620825    0.59936224
   2  H     1.32998857   -1.18875552    0.59942989
   3  H    -1.69442622   -0.55720763    0.59953850
   4  N    -0.00002061   -0.00001764   -0.12942891
 
 Nuclear repulsion energy [au]:         11.868945825089
 
Warning: for H atoms in the case of dfbasis_scf=auto the AO basis is set as dfbasis_scf instead of def2-qzvp(pd)-ri-jk because the AO basis is larger. Set the dfbasis_scf=def2-qzvp(pd)-ri-jk in MINP if that is desired.
 
 
 Basis set information:
 
 Maximum angular momentum: g
 Maximum number of contracted Gaussians:   10
 Maximum number of primitive Gaussians:    14
 Spherical harmonic GTOs are used.
 
 
 Conventional basis set:
 
   1  H  def2-svp [ 4s 1p | 2s 1p ]
   2  H  def2-svp [ 4s 1p | 2s 1p ]
   3  H  def2-svp [ 4s 1p | 2s 1p ]
   4  N  def2-svp [ 7s 4p 1d | 3s 2p 1d ]
 
 Basis functions:
            1             2             3             4             5             6             7             8             9            10
    0    1H1s          1H2s          1H1pz         1H1py         1H1px         2H1s          2H2s          2H1pz         2H1py         2H1px     
    1    3H1s          3H2s          3H1pz         3H1py         3H1px         4N1s          4N2s          4N3s          4N1pz         4N1py     
    2    4N1px         4N2pz         4N2py         4N2px         4N1d-2        4N1d-1        4N1d0         4N1d+1        4N1d+2    
 
 Maximum number of basis functions per shell:    6
 Total number of basis functions:     29
 
 
 Fitting basis set for the SCF calculation:
 
   1  H  def2-qzvpp [ 7s 3p 2d 1f | 4s 3p 2d 1f ]
   2  H  def2-qzvpp [ 7s 3p 2d 1f | 4s 3p 2d 1f ]
   3  H  def2-qzvpp [ 7s 3p 2d 1f | 4s 3p 2d 1f ]
   4  N  def2-qzvpp-ri-jk [ 14s 10p 6d 2f 1g | 10s 8p 4d 2f 1g ]
 
 Basis functions:
            1             2             3             4             5             6             7             8             9            10
    0    1H1s          1H2s          1H3s          1H4s          1H1pz         1H1py         1H1px         1H2pz         1H2py         1H2px     
    1    1H3pz         1H3py         1H3px         1H1d-2        1H1d-1        1H1d0         1H1d+1        1H1d+2        1H2d-2        1H2d-1    
    2    1H2d0         1H2d+1        1H2d+2        1H1f-3        1H1f-2        1H1f-1        1H1f0         1H1f+1        1H1f+2        1H1f+3    
    3    2H1s          2H2s          2H3s          2H4s          2H1pz         2H1py         2H1px         2H2pz         2H2py         2H2px     
    4    2H3pz         2H3py         2H3px         2H1d-2        2H1d-1        2H1d0         2H1d+1        2H1d+2        2H2d-2        2H2d-1    
    5    2H2d0         2H2d+1        2H2d+2        2H1f-3        2H1f-2        2H1f-1        2H1f0         2H1f+1        2H1f+2        2H1f+3    
    6    3H1s          3H2s          3H3s          3H4s          3H1pz         3H1py         3H1px         3H2pz         3H2py         3H2px     
    7    3H3pz         3H3py         3H3px         3H1d-2        3H1d-1        3H1d0         3H1d+1        3H1d+2        3H2d-2        3H2d-1    
    8    3H2d0         3H2d+1        3H2d+2        3H1f-3        3H1f-2        3H1f-1        3H1f0         3H1f+1        3H1f+2        3H1f+3    
    9    4N1s          4N2s          4N3s          4N4s          4N5s          4N6s          4N7s          4N8s          4N9s          4N10s     
   10    4N1pz         4N1py         4N1px         4N2pz         4N2py         4N2px         4N3pz         4N3py         4N3px         4N4pz     
   11    4N4py         4N4px         4N5pz         4N5py         4N5px         4N6pz         4N6py         4N6px         4N7pz         4N7py     
   12    4N7px         4N8pz         4N8py         4N8px         4N1d-2        4N1d-1        4N1d0         4N1d+1        4N1d+2        4N2d-2    
   13    4N2d-1        4N2d0         4N2d+1        4N2d+2        4N3d-2        4N3d-1        4N3d0         4N3d+1        4N3d+2        4N4d-2    
   14    4N4d-1        4N4d0         4N4d+1        4N4d+2        4N1f-3        4N1f-2        4N1f-1        4N1f0         4N1f+1        4N1f+2    
   15    4N1f+3        4N2f-3        4N2f-2        4N2f-1        4N2f0         4N2f+1        4N2f+2        4N2f+3        4N1g-4        4N1g-3    
   16    4N1g-2        4N1g-1        4N1g0         4N1g+1        4N1g+2        4N1g+3        4N1g+4    
 
 Maximum number of basis functions per shell:   24
 Total number of basis functions:    167
 
 
 Initializing the SAD routines for the initial guess...
 Checking the files required for the initial guess...
 Density files have not been found for the initial guess.
 Generating SCFDENSITIES.H.def2-svp.0
 Generating SCFDENSITIES.N.def2-svp.0
 CPU time [min]:     0.212                   Wall time [min]:     0.134
 
 Character table for point group C1:
 
          E  
    A     1
 
 Number of basis functions per irrep:
    A      29
 
 
 Calculation of overlap integrals...
 CPU time [min]:     0.218                   Wall time [min]:     0.135
 
 Calculation of the square root of the overlap matrix...
 Minimum eigenvalue of the overlap matrix: 0.292877E-01
 CPU time [min]:     0.232                   Wall time [min]:     0.135
 
 Calculation of kinetic energy integrals...
 CPU time [min]:     0.232                   Wall time [min]:     0.135
 Calculation of dipole moment integrals...
 CPU time [min]:     0.233                   Wall time [min]:     0.135
 Calculation of nuclear attraction integrals...
 CPU time [min]:     0.234                   Wall time [min]:     0.135
 
 Calculation of prescreening integrals...
 CPU time [min]:     0.240                   Wall time [min]:     0.135
 
 Calculation of two-center Coulomb integrals...
   1% done.
  13% done.
  25% done.
  36% done.
  55% done.
  74% done.
  90% done.
 100% done.
 CPU time [min]:     0.251                   Wall time [min]:     0.135
 
 Cholesky decomposition of the two-center matrix...
 Reciprocal of the condition number:  0.155759E-04
 CPU time [min]:     0.259                   Wall time [min]:     0.135
 
 
 Running small-basis SCF...

 ************************ 2026-02-26 16:02:12 *************************
 Executing scf...

 @scfsetup: integrals calculated directly
            mrcc/integ direct run
 @scfsetup: calculating on full matrices
            not using symmetry adapted basis
 @scfsetup: diis switched on
 @scfsetup: number of steps to extrapolate from  10
 @scfsetup: tolerance in energy deviation    0.100000E-07
            tolerance in density deviation    0.100000E-08
 @scfsetup: maximum number of iterations: 200
 @scfsetup: restricted closed shell hf calc
 @scfsetup: starting scf from superposition of atomic densities
 @scfsetup: occupation set:
            from initial orbitals
 @scfsetup: Parameter-set for SCF acceleration: normal
 @scfsetup: diis runs from iteration:   2
 @scfsetup: diis runs to iteration: 200
 @scfsetup: diis runs in every iteration
 @scfsetup: diiswatch is disabled                   
 @scfsetup: diis dtol criteria to switch on:      0.0000E+00
           (or the iteration number below is reached)
 @scfsetup: static damping scheme
            iteration step criteria to turn damping off: 3
 @scfsetup: dynamic level shifting
            tolarance in HOMO-LUMO gap:  0.200
            tolarance in density deviation:     0.0000E+00
            iteration step criteria to turn level shifting off: 8
 Allocation of 46.0 Gbytes of memory...
 ======================================================================
 ITERATION STEP   1
 CPU time [min]:     0.015                   Wall time [min]:     0.008
 

 SCF control                  : initial
 Damping factor/level shift   : 0.000/0.200
 DIIS [start/end/frequency]   :   2 /200 /  1

 Constructing Fock-matrix...
 
 Pipek-Mezey localization...
 Step  Convergence
   1   0.870499623100
   2   0.004256927539
   3   0.000000315959
   4   0.000000001150
 CPU time [min]:     0.042                   Wall time [min]:     0.009
 
 Constructing local fitting domains...
 Maximum number of atoms in fitting domains:    4
 Average number of atoms in fitting domains:    4.0
 
 First step of Coulomb + first step of exchange...
 Exchange contribution is evaluated for MOs 1 to 5.
   1% done.
  13% done.
  28% done.
  39% done.
  69% done.
 100% done.
 Fitting and assembly step of exchange...
 CPU time [min]:     0.100                   Wall time [min]:     0.010
 
 Second step of Coulomb...
   1% done.
  13% done.
  28% done.
  39% done.
  69% done.
 100% done.
 CPU time [min]:     0.110                   Wall time [min]:     0.010
 
 Gradient norm:      2.3643E+00
 RMS of [F,P]:                                         0.07486204860595
 RMS of difference density:                            0.02760052999359
 Gap [au]:  0.68428253
 ALPHA OCC:   5
 BETA  OCC:   5
 
 ***HARTREE-FOCK ENERGY IN STEP   1 IS        -55.8537107290801700 [AU]
 ======================================================================
 ITERATION STEP   2
 CPU time [min]:     0.121                   Wall time [min]:     0.010
 

 SCF control                  : diis
 Damping factor/level shift   : 0.000/0.000
 DIIS [start/end/frequency]   :   2 /200 /  1

 Constructing Fock-matrix...
 
 Pipek-Mezey localization...
 Step  Convergence
   1   0.020353562707
   2   0.020298937253
   3   0.000002110598
   4   0.000000000916
 CPU time [min]:     0.147                   Wall time [min]:     0.010
 
 Constructing local fitting domains...
 Maximum number of atoms in fitting domains:    4
 Average number of atoms in fitting domains:    4.0
 
 First step of Coulomb + first step of exchange...
 Exchange contribution is evaluated for MOs 1 to 5.
   1% done.
  13% done.
  28% done.
  39% done.
  69% done.
 100% done.
 Fitting and assembly step of exchange...
 CPU time [min]:     0.201                   Wall time [min]:     0.011
 
 Second step of Coulomb...
   1% done.
  13% done.
  28% done.
  39% done.
  69% done.
 100% done.
 CPU time [min]:     0.211                   Wall time [min]:     0.011
 
 Gradient norm:      3.2038E-01
 DIIS is running in this iteration step.
 RMS of [F,P]:                                         0.01604635564835
 RMS of difference density:                            0.01267319554487
 Gap [au]:  0.55359330
 ALPHA OCC:   5
 BETA  OCC:   5
 
 ***HARTREE-FOCK ENERGY IN STEP   2 IS        -56.1233877293020313 [AU]
 
 Step comparison  Energy Drift [au]  DIIS error drift  Gradient drift
        1            2.6968E-01         5.8816E-02       2.0439E+00
        2            5.6123E+01         1.0000E-09       2.0439E+00
 ======================================================================
 ITERATION STEP   3
 CPU time [min]:     0.227                   Wall time [min]:     0.012
 

 SCF control                  : diis
 Damping factor/level shift   : 0.000/0.000
 DIIS [start/end/frequency]   :   2 /200 /  1

 Constructing Fock-matrix...
 
 Pipek-Mezey localization...
 Step  Convergence
   1   0.020197538783
   2   0.020281189688
   3   0.000001822078
   4   0.000000000194
 CPU time [min]:     0.253                   Wall time [min]:     0.012
 
 Constructing local fitting domains...
 Local fitting domains are unchanged.
 
 First step of Coulomb + first step of exchange...
 Exchange contribution is evaluated for MOs 1 to 5.
   1% done.
  13% done.
  28% done.
  39% done.
  69% done.
 100% done.
 Fitting and assembly step of exchange...
 CPU time [min]:     0.304                   Wall time [min]:     0.013
 
 Second step of Coulomb...
   1% done.
  13% done.
  28% done.
  39% done.
  69% done.
 100% done.
 CPU time [min]:     0.314                   Wall time [min]:     0.013
 
 Gradient norm:      1.2627E-01
 DIIS is running in this iteration step.
 RMS of [F,P]:                                         0.00756552218362
 RMS of difference density:                            0.00383725135799
 Gap [au]:  0.60435329
 ALPHA OCC:   5
 BETA  OCC:   5
 
 ***HARTREE-FOCK ENERGY IN STEP   3 IS        -56.1429859020535673 [AU]
 
 Step comparison  Energy Drift [au]  DIIS error drift  Gradient drift
        2            1.9598E-02         8.4808E-03       1.9412E-01
 ======================================================================
 ITERATION STEP   4
 CPU time [min]:     0.328                   Wall time [min]:     0.013
 

 SCF control                  : diis
 Damping factor/level shift   : 0.000/0.000
 DIIS [start/end/frequency]   :   2 /200 /  1

 Constructing Fock-matrix...
 
 Pipek-Mezey localization...
 Step  Convergence
   1   0.019965200597
   2   0.020286188289
   3   0.000001757638
   4   0.000000000144
 CPU time [min]:     0.354                   Wall time [min]:     0.014
 
 Constructing local fitting domains...
 Local fitting domains are unchanged.
 
 First step of Coulomb + first step of exchange...
 Exchange contribution is evaluated for MOs 1 to 5.
   1% done.
  13% done.
  28% done.
  39% done.
  69% done.
 100% done.
 Fitting and assembly step of exchange...
 CPU time [min]:     0.405                   Wall time [min]:     0.015
 
 Second step of Coulomb...
   1% done.
  13% done.
  28% done.
  39% done.
  69% done.
 100% done.
 CPU time [min]:     0.415                   Wall time [min]:     0.015
 
 Gradient norm:      2.4281E-02
 DIIS is running in this iteration step.
 RMS of [F,P]:                                         0.00094435254727
 RMS of difference density:                            0.00095263040959
 Gap [au]:  0.59672649
 ALPHA OCC:   5
 BETA  OCC:   5
 
 ***HARTREE-FOCK ENERGY IN STEP   4 IS        -56.1482078585047617 [AU]
 
 Step comparison  Energy Drift [au]  DIIS error drift  Gradient drift
        3            5.2220E-03         6.6212E-03       1.0198E-01
 ======================================================================
 ITERATION STEP   5
 CPU time [min]:     0.429                   Wall time [min]:     0.015
 

 SCF control                  : diis
 Damping factor/level shift   : 0.000/0.000
 DIIS [start/end/frequency]   :   2 /200 /  1

 Constructing Fock-matrix...
 
 Pipek-Mezey localization...
 Step  Convergence
   1   0.030140786455
   2   0.030311194167
   3   0.000051104423
   4   0.000000364412
   5   0.000000000830
 CPU time [min]:     0.455                   Wall time [min]:     0.015
 
 Constructing local fitting domains...
 Local fitting domains are unchanged.
 
 First step of Coulomb + first step of exchange...
 Exchange contribution is evaluated for MOs 1 to 5.
   1% done.
  13% done.
  28% done.
  39% done.
  69% done.
 100% done.
 Fitting and assembly step of exchange...
 CPU time [min]:     0.505                   Wall time [min]:     0.016
 
 Second step of Coulomb...
   1% done.
  13% done.
  28% done.
  39% done.
  69% done.
 100% done.
 CPU time [min]:     0.515                   Wall time [min]:     0.016
 
 Gradient norm:      2.0338E-03
 DIIS is running in this iteration step.
 RMS of [F,P]:                                         0.00015710551549
 RMS of difference density:                            0.00013093270838
 Gap [au]:  0.59699277
 ALPHA OCC:   5
 BETA  OCC:   5
 
 ***HARTREE-FOCK ENERGY IN STEP   5 IS        -56.1483695851859466 [AU]
 
 Step comparison  Energy Drift [au]  DIIS error drift  Gradient drift
        4            1.6173E-04         7.8725E-04       2.2247E-02
 ======================================================================
 ITERATION STEP   6
 CPU time [min]:     0.529                   Wall time [min]:     0.016
 

 SCF control                  : diis
 Damping factor/level shift   : 0.000/0.000
 DIIS [start/end/frequency]   :   2 /200 /  1

 Constructing Fock-matrix...
 
 Pipek-Mezey localization...
 Step  Convergence
   1   0.045159358552
   2   0.046424305444
   3   0.000047662301
   4   0.000000158292
   5   0.000000001202
 CPU time [min]:     0.556                   Wall time [min]:     0.017
 
 Constructing local fitting domains...
 Local fitting domains are unchanged.
 
 First step of Coulomb + first step of exchange...
 Exchange contribution is evaluated for MOs 1 to 5.
   1% done.
  13% done.
  28% done.
  39% done.
  69% done.
 100% done.
 Fitting and assembly step of exchange...
 CPU time [min]:     0.605                   Wall time [min]:     0.018
 
 Second step of Coulomb...
   1% done.
  13% done.
  28% done.
  39% done.
  69% done.
 100% done.
 CPU time [min]:     0.615                   Wall time [min]:     0.018
 
 Gradient norm:      3.1558E-04
 DIIS is running in this iteration step.
 RMS of [F,P]:                                         0.00001580972021
 RMS of difference density:                            0.00001245646002
 Gap [au]:  0.59698555
 ALPHA OCC:   5
 BETA  OCC:   5
 
 ***HARTREE-FOCK ENERGY IN STEP   6 IS        -56.1483729278158279 [AU]
 
 Step comparison  Energy Drift [au]  DIIS error drift  Gradient drift
        5            3.3426E-06         1.4130E-04       1.7182E-03
 ======================================================================
 ITERATION STEP   7
 CPU time [min]:     0.629                   Wall time [min]:     0.018
 

 SCF control                  : diis
 Damping factor/level shift   : 0.000/0.000
 DIIS [start/end/frequency]   :   2 /200 /  1

 Constructing Fock-matrix...
 
 Pipek-Mezey localization...
 Step  Convergence
   1   0.045334480987
   2   0.044214153499
   3   0.000032395513
   4   0.000000110505
   5   0.000000000270
   6   0.000000000001
 CPU time [min]:     0.655                   Wall time [min]:     0.018
 
 Constructing local fitting domains...
 Local fitting domains are unchanged.
 
 First step of Coulomb + first step of exchange...
 Exchange contribution is evaluated for MOs 1 to 5.
   1% done.
  13% done.
  28% done.
  39% done.
  69% done.
 100% done.
 Fitting and assembly step of exchange...
 CPU time [min]:     0.705                   Wall time [min]:     0.019
 
 Second step of Coulomb...
   1% done.
  13% done.
  28% done.
  39% done.
  69% done.
 100% done.
 CPU time [min]:     0.715                   Wall time [min]:     0.019
 
 Gradient norm:      7.2861E-05
 DIIS is running in this iteration step.
 RMS of [F,P]:                                         0.00000232055058
 RMS of difference density:                            0.00000235834755
 Gap [au]:  0.59697679
 ALPHA OCC:   5
 BETA  OCC:   5
 
 ***HARTREE-FOCK ENERGY IN STEP   7 IS        -56.1483729611166922 [AU]
 
 Step comparison  Energy Drift [au]  DIIS error drift  Gradient drift
        6            3.3301E-08         1.3489E-05       2.4272E-04
 ======================================================================
 ITERATION STEP   8
 CPU time [min]:     0.728                   Wall time [min]:     0.020
 

 SCF control                  : diis
 Damping factor/level shift   : 0.000/0.000
 DIIS [start/end/frequency]   :   2 /200 /  1

 Constructing Fock-matrix...
 
 Pipek-Mezey localization...
 Step  Convergence
   1   0.055469215390
   2   0.057545745755
   3   0.000145391900
   4   0.000000150398
   5   0.000000000575
   6   0.000000000002
   7   0.000000000000
 CPU time [min]:     0.755                   Wall time [min]:     0.020
 
 Constructing local fitting domains...
 Local fitting domains are unchanged.
 
 First step of Coulomb + first step of exchange...
 Exchange contribution is evaluated for MOs 1 to 5.
   1% done.
  13% done.
  28% done.
  39% done.
  69% done.
 100% done.
 Fitting and assembly step of exchange...
 CPU time [min]:     0.805                   Wall time [min]:     0.021
 
 Second step of Coulomb...
   1% done.
  13% done.
  28% done.
  39% done.
  69% done.
 100% done.
 CPU time [min]:     0.815                   Wall time [min]:     0.021
 
 Gradient norm:      1.0680E-05
 DIIS is running in this iteration step.
 RMS of [F,P]:                                         0.00000040752193
 RMS of difference density:                            0.00000052795964
 Gap [au]:  0.59697336
 ALPHA OCC:   5
 BETA  OCC:   5
 
 ***HARTREE-FOCK ENERGY IN STEP   8 IS        -56.1483729622628687 [AU]
 
 Step comparison  Energy Drift [au]  DIIS error drift  Gradient drift
        7            1.1462E-09         1.9130E-06       6.2181E-05
 ======================================================================
 ITERATION STEP   9
 CPU time [min]:     0.829                   Wall time [min]:     0.021
 

 SCF control                  : diis
 Damping factor/level shift   : 0.000/0.000
 DIIS [start/end/frequency]   :   2 /200 /  1

 Constructing Fock-matrix...
 
 Pipek-Mezey localization...
 Step  Convergence
   1   0.045140195535
   2   0.044271376445
   3   0.000008413953
   4   0.000000005517
   5   0.000000000009
   6   0.000000000000
 CPU time [min]:     0.855                   Wall time [min]:     0.022
 
 Constructing local fitting domains...
 Local fitting domains are unchanged.
 
 First step of Coulomb + first step of exchange...
 Exchange contribution is evaluated for MOs 1 to 5.
   1% done.
  13% done.
  28% done.
  39% done.
  69% done.
 100% done.
 Fitting and assembly step of exchange...
 CPU time [min]:     0.905                   Wall time [min]:     0.022
 
 Second step of Coulomb...
   1% done.
  13% done.
  28% done.
  39% done.
  69% done.
 100% done.
 CPU time [min]:     0.915                   Wall time [min]:     0.023
 
 Gradient norm:      1.2194E-06
 DIIS is running in this iteration step.
 RMS of [F,P]:                                         0.00000004993312
 RMS of difference density:                            0.00000011294067
 Gap [au]:  0.59697315
 ALPHA OCC:   5
 BETA  OCC:   5
 
 ***HARTREE-FOCK ENERGY IN STEP   9 IS        -56.1483729623051531 [AU]
 
 Step comparison  Energy Drift [au]  DIIS error drift  Gradient drift
        8            4.2284E-11         3.5759E-07       9.4607E-06
 ======================================================================
 ITERATION STEP  10
 CPU time [min]:     0.928                   Wall time [min]:     0.023
 

 SCF control                  : diis
 Damping factor/level shift   : 0.000/0.000
 DIIS [start/end/frequency]   :   2 /200 /  1

 Constructing Fock-matrix...
 
 Pipek-Mezey localization...
 Step  Convergence
   1   0.045541280438
   2   0.044350885067
   3   0.000036351564
   4   0.000000200811
   5   0.000000000840
   6   0.000000000004
   7   0.000000000000
 CPU time [min]:     0.955                   Wall time [min]:     0.023
 
 Constructing local fitting domains...
 Local fitting domains are unchanged.
 
 First step of Coulomb + first step of exchange...
 Exchange contribution is evaluated for MOs 1 to 5.
   1% done.
  13% done.
  28% done.
  39% done.
  69% done.
 100% done.
 Fitting and assembly step of exchange...
 CPU time [min]:     1.005                   Wall time [min]:     0.024
 
 Second step of Coulomb...
   1% done.
  13% done.
  28% done.
  39% done.
  69% done.
 100% done.
 CPU time [min]:     1.015                   Wall time [min]:     0.024
 
 Gradient norm:      4.1087E-07
 DIIS is running in this iteration step.
 RMS of [F,P]:                                         0.00000001237371
 RMS of difference density:                            0.00000004068237
 Gap [au]:  0.59697313
 ALPHA OCC:   5
 BETA  OCC:   5
 
 ***HARTREE-FOCK ENERGY IN STEP  10 IS        -56.1483729623060626 [AU]
 
 Step comparison  Energy Drift [au]  DIIS error drift  Gradient drift
        9            9.0949E-13         3.7559E-08       8.0852E-07
 ======================================================================
 ITERATION STEP  11
 CPU time [min]:     1.028                   Wall time [min]:     0.024
 

 SCF control                  : diis
 Damping factor/level shift   : 0.000/0.000
 DIIS [start/end/frequency]   :   2 /200 /  1

 Constructing Fock-matrix...
 
 Pipek-Mezey localization...
 Step  Convergence
   1   0.045140072633
   2   0.044193994544
   3   0.000005652100
   4   0.000000010346
   5   0.000000000043
   6   0.000000000000
 CPU time [min]:     1.055                   Wall time [min]:     0.025
 
 Constructing local fitting domains...
 Local fitting domains are unchanged.
 
 First step of Coulomb + first step of exchange...
 Exchange contribution is evaluated for MOs 1 to 5.
   1% done.
  13% done.
  28% done.
  39% done.
  69% done.
 100% done.
 Fitting and assembly step of exchange...
 CPU time [min]:     1.105                   Wall time [min]:     0.026
 
 Second step of Coulomb...
   1% done.
  13% done.
  28% done.
  39% done.
  69% done.
 100% done.
 CPU time [min]:     1.115                   Wall time [min]:     0.026
 
 Gradient norm:      5.2332E-08
 DIIS is running in this iteration step.
 RMS of [F,P]:                                         0.00000000216509
 RMS of difference density:                            0.00000000639834
 Gap [au]:  0.59697314
 ALPHA OCC:   5
 BETA  OCC:   5
 
 ***HARTREE-FOCK ENERGY IN STEP  11 IS        -56.1483729623061549 [AU]
 
 Step comparison  Energy Drift [au]  DIIS error drift  Gradient drift
       10            9.2371E-14         1.0209E-08       3.5854E-07
 ======================================================================
 ITERATION STEP  12
 CPU time [min]:     1.129                   Wall time [min]:     0.026
 

 SCF control                  : diis
 Damping factor/level shift   : 0.000/0.000
 DIIS [start/end/frequency]   :   2 /200 /  1

 Constructing Fock-matrix...
 
 Pipek-Mezey localization...
 Step  Convergence
   1   0.055469155048
   2   0.057474327025
   3   0.000133009095
   4   0.000000220553
   5   0.000000000568
   6   0.000000000002
   7   0.000000000000
 CPU time [min]:     1.155                   Wall time [min]:     0.026
 
 Constructing local fitting domains...
 Local fitting domains are unchanged.
 
 First step of Coulomb + first step of exchange...
 Exchange contribution is evaluated for MOs 1 to 5.
   1% done.
  13% done.
  28% done.
  39% done.
  69% done.
 100% done.
 Fitting and assembly step of exchange...
 CPU time [min]:     1.205                   Wall time [min]:     0.027
 
 Second step of Coulomb...
   1% done.
  13% done.
  28% done.
  39% done.
  69% done.
 100% done.
 CPU time [min]:     1.216                   Wall time [min]:     0.027
 
 Gradient norm:      3.7026E-09
 DIIS is running in this iteration step.
 RMS of [F,P]:                                         0.00000000016407
 RMS of difference density:                            0.00000000017485
 Gap [au]:  0.59697314
 ALPHA OCC:   5
 BETA  OCC:   5
 
 ***HARTREE-FOCK ENERGY IN STEP  12 IS        -56.1483729623062970 [AU]
 
 Step comparison  Energy Drift [au]  DIIS error drift  Gradient drift
       11            1.4211E-13         2.0010E-09       4.8630E-08
 
 The SCF iteration has converged.
 An extra iteration will be performed to calculate accurate SCF energy.
 
 ======================================================================
 ITERATION STEP  13
 CPU time [min]:     1.231                   Wall time [min]:     0.028
 

 SCF control                  : diis
 Damping factor/level shift   : 0.000/0.000
 DIIS [start/end/frequency]   :   2 /200 /  1

 Constructing Fock-matrix...
 
 Pipek-Mezey localization...
 Step  Convergence
   1   0.045140055504
   2   0.044271386434
   3   0.000008554159
   4   0.000000023690
   5   0.000000000143
   6   0.000000000000
 CPU time [min]:     1.258                   Wall time [min]:     0.028
 
 Constructing local fitting domains...
 Local fitting domains are unchanged.
 
 First step of Coulomb + first step of exchange...
 Exchange contribution is evaluated for MOs 1 to 5.
   1% done.
  13% done.
  28% done.
  39% done.
  69% done.
 100% done.
 Fitting and assembly step of exchange...
 CPU time [min]:     1.308                   Wall time [min]:     0.029
 
 Second step of Coulomb...
   1% done.
  13% done.
  28% done.
  39% done.
  69% done.
 100% done.
 CPU time [min]:     1.318                   Wall time [min]:     0.029
 
 Gradient norm:      4.7505E-10
 RMS of [F,P]:                                         0.00000000002599
 RMS of difference density:                            0.00000000003052
 Gap [au]:  0.59697314
 ALPHA OCC:   5
 BETA  OCC:   5
 
 ***HARTREE-FOCK ENERGY IN STEP  13 IS        -56.1483729623061407 [AU]
 
 Step comparison  Energy Drift [au]  DIIS error drift  Gradient drift
       12           -1.5632E-13         1.3808E-10       3.2275E-09
 Warning! The energy goes uphill (with respect to previous step).
 ======================================================================
 
 SUCCESS...
 THE SCF ITERATION HAS CONVERGED!
 
                   A   
 FINAL ALPHA OCC:   5
 FINAL BETA  OCC:   5
 
 ***FINAL HARTREE-FOCK ENERGY:        -56.1483729623061407 [AU]
 
 Orbital energies [au]:
      Irrep         Alpha          Beta
    1   A        -15.537640     -15.537640
    2   A         -1.116004      -1.116004
    3   A         -0.617254      -0.617254
    4   A         -0.617214      -0.617214
    5   A         -0.420656      -0.420656
 
    6   A          0.176317       0.176317
    7   A          0.269668       0.269668
    8   A          0.269672       0.269672
    9   A          0.734864       0.734864
   10   A          0.734918       0.734918
   11   A          0.892375       0.892375
   12   A          0.989030       0.989030
   13   A          1.095109       1.095109
   14   A          1.095114       1.095114
   15   A          1.146208       1.146208
   16   A          1.455232       1.455232
   17   A          1.455271       1.455271
   18   A          1.877731       1.877731
   19   A          1.961818       1.961818
   20   A          2.082327       2.082327
   21   A          2.082336       2.082336
   22   A          2.428591       2.428591
   23   A          2.428714       2.428714
   24   A          2.772227       2.772227
   25   A          3.164917       3.164917
   26   A          3.164921       3.164921
   27   A          3.261477       3.261477
   28   A          3.704700       3.704700
   29   A          3.704711       3.704711
 
 RETURNING FROM SCF ALGORITHM
 ======================================================================

 ************************ 2026-02-26 16:02:14 *************************
 Executing integ...

 Allocation of 46.0 Gbytes of memory...
 
 
 Number of atoms:                  4
 Charge:                           0
 Number of electrons:             10
 Number of core electrons:         2
 Spin multiplicity:                1
 
                 Cartesian coordinates [bohr]      Atomic mass [AMU]  Z
   1  H     1.51798146    0.50919579   -0.98892239     1.007825       1
   2  H     0.50934014   -0.98892239    1.51787491     1.007825       1
   3  H    -0.98879693    1.51789380    0.50921469     1.007825       1
   4  N    -0.07473641   -0.07471068   -0.07471068    14.003074       7
 
 This molecule is an asymmetric top.
 
 Rotational constants [cm-1]: 
      9.818547075435      9.818369386061      6.257416881345
 
 Point group: C1  
 Computational point group: C1  
 
 Cartesian coordinates in standard orientation [bohr]
   1  H     0.36472399    1.74620825    0.59936224
   2  H     1.32998857   -1.18875552    0.59942989
   3  H    -1.69442622   -0.55720763    0.59953850
   4  N    -0.00002061   -0.00001764   -0.12942891
 
 Nuclear repulsion energy [au]:         11.868945825089
 
 
 Basis set information:
 
 Maximum angular momentum: i
 Maximum number of contracted Gaussians:   11
 Maximum number of primitive Gaussians:    15
 Spherical harmonic GTOs are used.
 
 
 Conventional basis set:
 
   1  H  aug-cc-pv5z [ 9s 5p 4d 3f 2g | 6s 5p 4d 3f 2g ]
   2  H  aug-cc-pv5z [ 9s 5p 4d 3f 2g | 6s 5p 4d 3f 2g ]
   3  H  aug-cc-pv5z [ 9s 5p 4d 3f 2g | 6s 5p 4d 3f 2g ]
   4  N  aug-cc-pv5z [ 15s 9p 5d 4f 3g 2h | 7s 6p 5d 4f 3g 2h ]
 
 Basis functions:
            1             2             3             4             5             6             7             8             9            10
    0    1H1s          1H2s          1H3s          1H4s          1H5s          1H6s          1H1pz         1H1py         1H1px         1H2pz     
    1    1H2py         1H2px         1H3pz         1H3py         1H3px         1H4pz         1H4py         1H4px         1H5pz         1H5py     
    2    1H5px         1H1d-2        1H1d-1        1H1d0         1H1d+1        1H1d+2        1H2d-2        1H2d-1        1H2d0         1H2d+1    
    3    1H2d+2        1H3d-2        1H3d-1        1H3d0         1H3d+1        1H3d+2        1H4d-2        1H4d-1        1H4d0         1H4d+1    
    4    1H4d+2        1H1f-3        1H1f-2        1H1f-1        1H1f0         1H1f+1        1H1f+2        1H1f+3        1H2f-3        1H2f-2    
    5    1H2f-1        1H2f0         1H2f+1        1H2f+2        1H2f+3        1H3f-3        1H3f-2        1H3f-1        1H3f0         1H3f+1    
    6    1H3f+2        1H3f+3        1H1g-4        1H1g-3        1H1g-2        1H1g-1        1H1g0         1H1g+1        1H1g+2        1H1g+3    
    7    1H1g+4        1H2g-4        1H2g-3        1H2g-2        1H2g-1        1H2g0         1H2g+1        1H2g+2        1H2g+3        1H2g+4    
    8    2H1s          2H2s          2H3s          2H4s          2H5s          2H6s          2H1pz         2H1py         2H1px         2H2pz     
    9    2H2py         2H2px         2H3pz         2H3py         2H3px         2H4pz         2H4py         2H4px         2H5pz         2H5py     
   10    2H5px         2H1d-2        2H1d-1        2H1d0         2H1d+1        2H1d+2        2H2d-2        2H2d-1        2H2d0         2H2d+1    
   11    2H2d+2        2H3d-2        2H3d-1        2H3d0         2H3d+1        2H3d+2        2H4d-2        2H4d-1        2H4d0         2H4d+1    
   12    2H4d+2        2H1f-3        2H1f-2        2H1f-1        2H1f0         2H1f+1        2H1f+2        2H1f+3        2H2f-3        2H2f-2    
   13    2H2f-1        2H2f0         2H2f+1        2H2f+2        2H2f+3        2H3f-3        2H3f-2        2H3f-1        2H3f0         2H3f+1    
   14    2H3f+2        2H3f+3        2H1g-4        2H1g-3        2H1g-2        2H1g-1        2H1g0         2H1g+1        2H1g+2        2H1g+3    
   15    2H1g+4        2H2g-4        2H2g-3        2H2g-2        2H2g-1        2H2g0         2H2g+1        2H2g+2        2H2g+3        2H2g+4    
   16    3H1s          3H2s          3H3s          3H4s          3H5s          3H6s          3H1pz         3H1py         3H1px         3H2pz     
   17    3H2py         3H2px         3H3pz         3H3py         3H3px         3H4pz         3H4py         3H4px         3H5pz         3H5py     
   18    3H5px         3H1d-2        3H1d-1        3H1d0         3H1d+1        3H1d+2        3H2d-2        3H2d-1        3H2d0         3H2d+1    
   19    3H2d+2        3H3d-2        3H3d-1        3H3d0         3H3d+1        3H3d+2        3H4d-2        3H4d-1        3H4d0         3H4d+1    
   20    3H4d+2        3H1f-3        3H1f-2        3H1f-1        3H1f0         3H1f+1        3H1f+2        3H1f+3        3H2f-3        3H2f-2    
   21    3H2f-1        3H2f0         3H2f+1        3H2f+2        3H2f+3        3H3f-3        3H3f-2        3H3f-1        3H3f0         3H3f+1    
   22    3H3f+2        3H3f+3        3H1g-4        3H1g-3        3H1g-2        3H1g-1        3H1g0         3H1g+1        3H1g+2        3H1g+3    
   23    3H1g+4        3H2g-4        3H2g-3        3H2g-2        3H2g-1        3H2g0         3H2g+1        3H2g+2        3H2g+3        3H2g+4    
   24    4N1s          4N2s          4N3s          4N4s          4N5s          4N6s          4N7s          4N1pz         4N1py         4N1px     
   25    4N2pz         4N2py         4N2px         4N3pz         4N3py         4N3px         4N4pz         4N4py         4N4px         4N5pz     
   26    4N5py         4N5px         4N6pz         4N6py         4N6px         4N1d-2        4N1d-1        4N1d0         4N1d+1        4N1d+2    
   27    4N2d-2        4N2d-1        4N2d0         4N2d+1        4N2d+2        4N3d-2        4N3d-1        4N3d0         4N3d+1        4N3d+2    
   28    4N4d-2        4N4d-1        4N4d0         4N4d+1        4N4d+2        4N5d-2        4N5d-1        4N5d0         4N5d+1        4N5d+2    
   29    4N1f-3        4N1f-2        4N1f-1        4N1f0         4N1f+1        4N1f+2        4N1f+3        4N2f-3        4N2f-2        4N2f-1    
   30    4N2f0         4N2f+1        4N2f+2        4N2f+3        4N3f-3        4N3f-2        4N3f-1        4N3f0         4N3f+1        4N3f+2    
   31    4N3f+3        4N4f-3        4N4f-2        4N4f-1        4N4f0         4N4f+1        4N4f+2        4N4f+3        4N1g-4        4N1g-3    
   32    4N1g-2        4N1g-1        4N1g0         4N1g+1        4N1g+2        4N1g+3        4N1g+4        4N2g-4        4N2g-3        4N2g-2    
   33    4N2g-1        4N2g0         4N2g+1        4N2g+2        4N2g+3        4N2g+4        4N3g-4        4N3g-3        4N3g-2        4N3g-1    
   34    4N3g0         4N3g+1        4N3g+2        4N3g+3        4N3g+4        4N1h-5        4N1h-4        4N1h-3        4N1h-2        4N1h-1    
   35    4N1h0         4N1h+1        4N1h+2        4N1h+3        4N1h+4        4N1h+5        4N2h-5        4N2h-4        4N2h-3        4N2h-2    
   36    4N2h-1        4N2h0         4N2h+1        4N2h+2        4N2h+3        4N2h+4        4N2h+5    
 
 Maximum number of basis functions per shell:   28
 Total number of basis functions:    367
 
 
 Fitting basis set for the SCF calculation:
 
   1  H  aug-cc-pv5z-ri-jk [ 5s 4p 5d 4f 3g 2h | 5s 4p 5d 4f 3g 2h ]
   2  H  aug-cc-pv5z-ri-jk [ 5s 4p 5d 4f 3g 2h | 5s 4p 5d 4f 3g 2h ]
   3  H  aug-cc-pv5z-ri-jk [ 5s 4p 5d 4f 3g 2h | 5s 4p 5d 4f 3g 2h ]
   4  N  aug-cc-pv5z-ri-jk [ 11s 8p 6d 5f 4g 3h 2i | 11s 8p 6d 5f 4g 3h 2i ]
 
 Basis functions:
            1             2             3             4             5             6             7             8             9            10
    0    1H1s          1H2s          1H3s          1H4s          1H5s          1H1pz         1H1py         1H1px         1H2pz         1H2py     
    1    1H2px         1H3pz         1H3py         1H3px         1H4pz         1H4py         1H4px         1H1d-2        1H1d-1        1H1d0     
    2    1H1d+1        1H1d+2        1H2d-2        1H2d-1        1H2d0         1H2d+1        1H2d+2        1H3d-2        1H3d-1        1H3d0     
    3    1H3d+1        1H3d+2        1H4d-2        1H4d-1        1H4d0         1H4d+1        1H4d+2        1H5d-2        1H5d-1        1H5d0     
    4    1H5d+1        1H5d+2        1H1f-3        1H1f-2        1H1f-1        1H1f0         1H1f+1        1H1f+2        1H1f+3        1H2f-3    
    5    1H2f-2        1H2f-1        1H2f0         1H2f+1        1H2f+2        1H2f+3        1H3f-3        1H3f-2        1H3f-1        1H3f0     
    6    1H3f+1        1H3f+2        1H3f+3        1H4f-3        1H4f-2        1H4f-1        1H4f0         1H4f+1        1H4f+2        1H4f+3    
    7    1H1g-4        1H1g-3        1H1g-2        1H1g-1        1H1g0         1H1g+1        1H1g+2        1H1g+3        1H1g+4        1H2g-4    
    8    1H2g-3        1H2g-2        1H2g-1        1H2g0         1H2g+1        1H2g+2        1H2g+3        1H2g+4        1H3g-4        1H3g-3    
    9    1H3g-2        1H3g-1        1H3g0         1H3g+1        1H3g+2        1H3g+3        1H3g+4        1H1h-5        1H1h-4        1H1h-3    
   10    1H1h-2        1H1h-1        1H1h0         1H1h+1        1H1h+2        1H1h+3        1H1h+4        1H1h+5        1H2h-5        1H2h-4    
   11    1H2h-3        1H2h-2        1H2h-1        1H2h0         1H2h+1        1H2h+2        1H2h+3        1H2h+4        1H2h+5        2H1s      
   12    2H2s          2H3s          2H4s          2H5s          2H1pz         2H1py         2H1px         2H2pz         2H2py         2H2px     
   13    2H3pz         2H3py         2H3px         2H4pz         2H4py         2H4px         2H1d-2        2H1d-1        2H1d0         2H1d+1    
   14    2H1d+2        2H2d-2        2H2d-1        2H2d0         2H2d+1        2H2d+2        2H3d-2        2H3d-1        2H3d0         2H3d+1    
   15    2H3d+2        2H4d-2        2H4d-1        2H4d0         2H4d+1        2H4d+2        2H5d-2        2H5d-1        2H5d0         2H5d+1    
   16    2H5d+2        2H1f-3        2H1f-2        2H1f-1        2H1f0         2H1f+1        2H1f+2        2H1f+3        2H2f-3        2H2f-2    
   17    2H2f-1        2H2f0         2H2f+1        2H2f+2        2H2f+3        2H3f-3        2H3f-2        2H3f-1        2H3f0         2H3f+1    
   18    2H3f+2        2H3f+3        2H4f-3        2H4f-2        2H4f-1        2H4f0         2H4f+1        2H4f+2        2H4f+3        2H1g-4    
   19    2H1g-3        2H1g-2        2H1g-1        2H1g0         2H1g+1        2H1g+2        2H1g+3        2H1g+4        2H2g-4        2H2g-3    
   20    2H2g-2        2H2g-1        2H2g0         2H2g+1        2H2g+2        2H2g+3        2H2g+4        2H3g-4        2H3g-3        2H3g-2    
   21    2H3g-1        2H3g0         2H3g+1        2H3g+2        2H3g+3        2H3g+4        2H1h-5        2H1h-4        2H1h-3        2H1h-2    
   22    2H1h-1        2H1h0         2H1h+1        2H1h+2        2H1h+3        2H1h+4        2H1h+5        2H2h-5        2H2h-4        2H2h-3    
   23    2H2h-2        2H2h-1        2H2h0         2H2h+1        2H2h+2        2H2h+3        2H2h+4        2H2h+5        3H1s          3H2s      
   24    3H3s          3H4s          3H5s          3H1pz         3H1py         3H1px         3H2pz         3H2py         3H2px         3H3pz     
   25    3H3py         3H3px         3H4pz         3H4py         3H4px         3H1d-2        3H1d-1        3H1d0         3H1d+1        3H1d+2    
   26    3H2d-2        3H2d-1        3H2d0         3H2d+1        3H2d+2        3H3d-2        3H3d-1        3H3d0         3H3d+1        3H3d+2    
   27    3H4d-2        3H4d-1        3H4d0         3H4d+1        3H4d+2        3H5d-2        3H5d-1        3H5d0         3H5d+1        3H5d+2    
   28    3H1f-3        3H1f-2        3H1f-1        3H1f0         3H1f+1        3H1f+2        3H1f+3        3H2f-3        3H2f-2        3H2f-1    
   29    3H2f0         3H2f+1        3H2f+2        3H2f+3        3H3f-3        3H3f-2        3H3f-1        3H3f0         3H3f+1        3H3f+2    
   30    3H3f+3        3H4f-3        3H4f-2        3H4f-1        3H4f0         3H4f+1        3H4f+2        3H4f+3        3H1g-4        3H1g-3    
   31    3H1g-2        3H1g-1        3H1g0         3H1g+1        3H1g+2        3H1g+3        3H1g+4        3H2g-4        3H2g-3        3H2g-2    
   32    3H2g-1        3H2g0         3H2g+1        3H2g+2        3H2g+3        3H2g+4        3H3g-4        3H3g-3        3H3g-2        3H3g-1    
   33    3H3g0         3H3g+1        3H3g+2        3H3g+3        3H3g+4        3H1h-5        3H1h-4        3H1h-3        3H1h-2        3H1h-1    
   34    3H1h0         3H1h+1        3H1h+2        3H1h+3        3H1h+4        3H1h+5        3H2h-5        3H2h-4        3H2h-3        3H2h-2    
   35    3H2h-1        3H2h0         3H2h+1        3H2h+2        3H2h+3        3H2h+4        3H2h+5        4N1s          4N2s          4N3s      
   36    4N4s          4N5s          4N6s          4N7s          4N8s          4N9s          4N10s         4N11s         4N1pz         4N1py     
   37    4N1px         4N2pz         4N2py         4N2px         4N3pz         4N3py         4N3px         4N4pz         4N4py         4N4px     
   38    4N5pz         4N5py         4N5px         4N6pz         4N6py         4N6px         4N7pz         4N7py         4N7px         4N8pz     
   39    4N8py         4N8px         4N1d-2        4N1d-1        4N1d0         4N1d+1        4N1d+2        4N2d-2        4N2d-1        4N2d0     
   40    4N2d+1        4N2d+2        4N3d-2        4N3d-1        4N3d0         4N3d+1        4N3d+2        4N4d-2        4N4d-1        4N4d0     
   41    4N4d+1        4N4d+2        4N5d-2        4N5d-1        4N5d0         4N5d+1        4N5d+2        4N6d-2        4N6d-1        4N6d0     
   42    4N6d+1        4N6d+2        4N1f-3        4N1f-2        4N1f-1        4N1f0         4N1f+1        4N1f+2        4N1f+3        4N2f-3    
   43    4N2f-2        4N2f-1        4N2f0         4N2f+1        4N2f+2        4N2f+3        4N3f-3        4N3f-2        4N3f-1        4N3f0     
   44    4N3f+1        4N3f+2        4N3f+3        4N4f-3        4N4f-2        4N4f-1        4N4f0         4N4f+1        4N4f+2        4N4f+3    
   45    4N5f-3        4N5f-2        4N5f-1        4N5f0         4N5f+1        4N5f+2        4N5f+3        4N1g-4        4N1g-3        4N1g-2    
   46    4N1g-1        4N1g0         4N1g+1        4N1g+2        4N1g+3        4N1g+4        4N2g-4        4N2g-3        4N2g-2        4N2g-1    
   47    4N2g0         4N2g+1        4N2g+2        4N2g+3        4N2g+4        4N3g-4        4N3g-3        4N3g-2        4N3g-1        4N3g0     
   48    4N3g+1        4N3g+2        4N3g+3        4N3g+4        4N4g-4        4N4g-3        4N4g-2        4N4g-1        4N4g0         4N4g+1    
   49    4N4g+2        4N4g+3        4N4g+4        4N1h-5        4N1h-4        4N1h-3        4N1h-2        4N1h-1        4N1h0         4N1h+1    
   50    4N1h+2        4N1h+3        4N1h+4        4N1h+5        4N2h-5        4N2h-4        4N2h-3        4N2h-2        4N2h-1        4N2h0     
   51    4N2h+1        4N2h+2        4N2h+3        4N2h+4        4N2h+5        4N3h-5        4N3h-4        4N3h-3        4N3h-2        4N3h-1    
   52    4N3h0         4N3h+1        4N3h+2        4N3h+3        4N3h+4        4N3h+5        4N1i-6        4N1i-5        4N1i-4        4N1i-3    
   53    4N1i-2        4N1i-1        4N1i0         4N1i+1        4N1i+2        4N1i+3        4N1i+4        4N1i+5        4N1i+6        4N2i-6    
   54    4N2i-5        4N2i-4        4N2i-3        4N2i-2        4N2i-1        4N2i0         4N2i+1        4N2i+2        4N2i+3        4N2i+4    
   55    4N2i+5        4N2i+6    
 
 Maximum number of basis functions per shell:   36
 Total number of basis functions:    552
 
 
 Fitting basis set for the correlation calculation:
 
   1  H  aug-cc-pv5z-ri [ 7s 6p 5d 4f 3g 2h | 7s 6p 5d 4f 3g 2h ]
   2  H  aug-cc-pv5z-ri [ 7s 6p 5d 4f 3g 2h | 7s 6p 5d 4f 3g 2h ]
   3  H  aug-cc-pv5z-ri [ 7s 6p 5d 4f 3g 2h | 7s 6p 5d 4f 3g 2h ]
   4  N  aug-cc-pv5z-ri [ 11s 9p 8d 7f 5g 4h 2i | 11s 9p 8d 7f 5g 4h 2i ]
 
 Basis functions:
            1             2             3             4             5             6             7             8             9            10
    0    1H1s          1H2s          1H3s          1H4s          1H5s          1H6s          1H7s          1H1pz         1H1py         1H1px     
    1    1H2pz         1H2py         1H2px         1H3pz         1H3py         1H3px         1H4pz         1H4py         1H4px         1H5pz     
    2    1H5py         1H5px         1H6pz         1H6py         1H6px         1H1d-2        1H1d-1        1H1d0         1H1d+1        1H1d+2    
    3    1H2d-2        1H2d-1        1H2d0         1H2d+1        1H2d+2        1H3d-2        1H3d-1        1H3d0         1H3d+1        1H3d+2    
    4    1H4d-2        1H4d-1        1H4d0         1H4d+1        1H4d+2        1H5d-2        1H5d-1        1H5d0         1H5d+1        1H5d+2    
    5    1H1f-3        1H1f-2        1H1f-1        1H1f0         1H1f+1        1H1f+2        1H1f+3        1H2f-3        1H2f-2        1H2f-1    
    6    1H2f0         1H2f+1        1H2f+2        1H2f+3        1H3f-3        1H3f-2        1H3f-1        1H3f0         1H3f+1        1H3f+2    
    7    1H3f+3        1H4f-3        1H4f-2        1H4f-1        1H4f0         1H4f+1        1H4f+2        1H4f+3        1H1g-4        1H1g-3    
    8    1H1g-2        1H1g-1        1H1g0         1H1g+1        1H1g+2        1H1g+3        1H1g+4        1H2g-4        1H2g-3        1H2g-2    
    9    1H2g-1        1H2g0         1H2g+1        1H2g+2        1H2g+3        1H2g+4        1H3g-4        1H3g-3        1H3g-2        1H3g-1    
   10    1H3g0         1H3g+1        1H3g+2        1H3g+3        1H3g+4        1H1h-5        1H1h-4        1H1h-3        1H1h-2        1H1h-1    
   11    1H1h0         1H1h+1        1H1h+2        1H1h+3        1H1h+4        1H1h+5        1H2h-5        1H2h-4        1H2h-3        1H2h-2    
   12    1H2h-1        1H2h0         1H2h+1        1H2h+2        1H2h+3        1H2h+4        1H2h+5        2H1s          2H2s          2H3s      
   13    2H4s          2H5s          2H6s          2H7s          2H1pz         2H1py         2H1px         2H2pz         2H2py         2H2px     
   14    2H3pz         2H3py         2H3px         2H4pz         2H4py         2H4px         2H5pz         2H5py         2H5px         2H6pz     
   15    2H6py         2H6px         2H1d-2        2H1d-1        2H1d0         2H1d+1        2H1d+2        2H2d-2        2H2d-1        2H2d0     
   16    2H2d+1        2H2d+2        2H3d-2        2H3d-1        2H3d0         2H3d+1        2H3d+2        2H4d-2        2H4d-1        2H4d0     
   17    2H4d+1        2H4d+2        2H5d-2        2H5d-1        2H5d0         2H5d+1        2H5d+2        2H1f-3        2H1f-2        2H1f-1    
   18    2H1f0         2H1f+1        2H1f+2        2H1f+3        2H2f-3        2H2f-2        2H2f-1        2H2f0         2H2f+1        2H2f+2    
   19    2H2f+3        2H3f-3        2H3f-2        2H3f-1        2H3f0         2H3f+1        2H3f+2        2H3f+3        2H4f-3        2H4f-2    
   20    2H4f-1        2H4f0         2H4f+1        2H4f+2        2H4f+3        2H1g-4        2H1g-3        2H1g-2        2H1g-1        2H1g0     
   21    2H1g+1        2H1g+2        2H1g+3        2H1g+4        2H2g-4        2H2g-3        2H2g-2        2H2g-1        2H2g0         2H2g+1    
   22    2H2g+2        2H2g+3        2H2g+4        2H3g-4        2H3g-3        2H3g-2        2H3g-1        2H3g0         2H3g+1        2H3g+2    
   23    2H3g+3        2H3g+4        2H1h-5        2H1h-4        2H1h-3        2H1h-2        2H1h-1        2H1h0         2H1h+1        2H1h+2    
   24    2H1h+3        2H1h+4        2H1h+5        2H2h-5        2H2h-4        2H2h-3        2H2h-2        2H2h-1        2H2h0         2H2h+1    
   25    2H2h+2        2H2h+3        2H2h+4        2H2h+5        3H1s          3H2s          3H3s          3H4s          3H5s          3H6s      
   26    3H7s          3H1pz         3H1py         3H1px         3H2pz         3H2py         3H2px         3H3pz         3H3py         3H3px     
   27    3H4pz         3H4py         3H4px         3H5pz         3H5py         3H5px         3H6pz         3H6py         3H6px         3H1d-2    
   28    3H1d-1        3H1d0         3H1d+1        3H1d+2        3H2d-2        3H2d-1        3H2d0         3H2d+1        3H2d+2        3H3d-2    
   29    3H3d-1        3H3d0         3H3d+1        3H3d+2        3H4d-2        3H4d-1        3H4d0         3H4d+1        3H4d+2        3H5d-2    
   30    3H5d-1        3H5d0         3H5d+1        3H5d+2        3H1f-3        3H1f-2        3H1f-1        3H1f0         3H1f+1        3H1f+2    
   31    3H1f+3        3H2f-3        3H2f-2        3H2f-1        3H2f0         3H2f+1        3H2f+2        3H2f+3        3H3f-3        3H3f-2    
   32    3H3f-1        3H3f0         3H3f+1        3H3f+2        3H3f+3        3H4f-3        3H4f-2        3H4f-1        3H4f0         3H4f+1    
   33    3H4f+2        3H4f+3        3H1g-4        3H1g-3        3H1g-2        3H1g-1        3H1g0         3H1g+1        3H1g+2        3H1g+3    
   34    3H1g+4        3H2g-4        3H2g-3        3H2g-2        3H2g-1        3H2g0         3H2g+1        3H2g+2        3H2g+3        3H2g+4    
   35    3H3g-4        3H3g-3        3H3g-2        3H3g-1        3H3g0         3H3g+1        3H3g+2        3H3g+3        3H3g+4        3H1h-5    
   36    3H1h-4        3H1h-3        3H1h-2        3H1h-1        3H1h0         3H1h+1        3H1h+2        3H1h+3        3H1h+4        3H1h+5    
   37    3H2h-5        3H2h-4        3H2h-3        3H2h-2        3H2h-1        3H2h0         3H2h+1        3H2h+2        3H2h+3        3H2h+4    
   38    3H2h+5        4N1s          4N2s          4N3s          4N4s          4N5s          4N6s          4N7s          4N8s          4N9s      
   39    4N10s         4N11s         4N1pz         4N1py         4N1px         4N2pz         4N2py         4N2px         4N3pz         4N3py     
   40    4N3px         4N4pz         4N4py         4N4px         4N5pz         4N5py         4N5px         4N6pz         4N6py         4N6px     
   41    4N7pz         4N7py         4N7px         4N8pz         4N8py         4N8px         4N9pz         4N9py         4N9px         4N1d-2    
   42    4N1d-1        4N1d0         4N1d+1        4N1d+2        4N2d-2        4N2d-1        4N2d0         4N2d+1        4N2d+2        4N3d-2    
   43    4N3d-1        4N3d0         4N3d+1        4N3d+2        4N4d-2        4N4d-1        4N4d0         4N4d+1        4N4d+2        4N5d-2    
   44    4N5d-1        4N5d0         4N5d+1        4N5d+2        4N6d-2        4N6d-1        4N6d0         4N6d+1        4N6d+2        4N7d-2    
   45    4N7d-1        4N7d0         4N7d+1        4N7d+2        4N8d-2        4N8d-1        4N8d0         4N8d+1        4N8d+2        4N1f-3    
   46    4N1f-2        4N1f-1        4N1f0         4N1f+1        4N1f+2        4N1f+3        4N2f-3        4N2f-2        4N2f-1        4N2f0     
   47    4N2f+1        4N2f+2        4N2f+3        4N3f-3        4N3f-2        4N3f-1        4N3f0         4N3f+1        4N3f+2        4N3f+3    
   48    4N4f-3        4N4f-2        4N4f-1        4N4f0         4N4f+1        4N4f+2        4N4f+3        4N5f-3        4N5f-2        4N5f-1    
   49    4N5f0         4N5f+1        4N5f+2        4N5f+3        4N6f-3        4N6f-2        4N6f-1        4N6f0         4N6f+1        4N6f+2    
   50    4N6f+3        4N7f-3        4N7f-2        4N7f-1        4N7f0         4N7f+1        4N7f+2        4N7f+3        4N1g-4        4N1g-3    
   51    4N1g-2        4N1g-1        4N1g0         4N1g+1        4N1g+2        4N1g+3        4N1g+4        4N2g-4        4N2g-3        4N2g-2    
   52    4N2g-1        4N2g0         4N2g+1        4N2g+2        4N2g+3        4N2g+4        4N3g-4        4N3g-3        4N3g-2        4N3g-1    
   53    4N3g0         4N3g+1        4N3g+2        4N3g+3        4N3g+4        4N4g-4        4N4g-3        4N4g-2        4N4g-1        4N4g0     
   54    4N4g+1        4N4g+2        4N4g+3        4N4g+4        4N5g-4        4N5g-3        4N5g-2        4N5g-1        4N5g0         4N5g+1    
   55    4N5g+2        4N5g+3        4N5g+4        4N1h-5        4N1h-4        4N1h-3        4N1h-2        4N1h-1        4N1h0         4N1h+1    
   56    4N1h+2        4N1h+3        4N1h+4        4N1h+5        4N2h-5        4N2h-4        4N2h-3        4N2h-2        4N2h-1        4N2h0     
   57    4N2h+1        4N2h+2        4N2h+3        4N2h+4        4N2h+5        4N3h-5        4N3h-4        4N3h-3        4N3h-2        4N3h-1    
   58    4N3h0         4N3h+1        4N3h+2        4N3h+3        4N3h+4        4N3h+5        4N4h-5        4N4h-4        4N4h-3        4N4h-2    
   59    4N4h-1        4N4h0         4N4h+1        4N4h+2        4N4h+3        4N4h+4        4N4h+5        4N1i-6        4N1i-5        4N1i-4    
   60    4N1i-3        4N1i-2        4N1i-1        4N1i0         4N1i+1        4N1i+2        4N1i+3        4N1i+4        4N1i+5        4N1i+6    
   61    4N2i-6        4N2i-5        4N2i-4        4N2i-3        4N2i-2        4N2i-1        4N2i0         4N2i+1        4N2i+2        4N2i+3    
   62    4N2i+4        4N2i+5        4N2i+6    
 
 Maximum number of basis functions per shell:   49
 Total number of basis functions:    623
 
 
 Old basis set for SCF restart
 
   1  H  def2-svp [ 4s 1p | 2s 1p ]
   2  H  def2-svp [ 4s 1p | 2s 1p ]
   3  H  def2-svp [ 4s 1p | 2s 1p ]
   4  N  def2-svp [ 7s 4p 1d | 3s 2p 1d ]
 
 Basis functions:
            1             2             3             4             5             6             7             8             9            10
    0    1H1s          1H2s          1H1pz         1H1py         1H1px         2H1s          2H2s          2H1pz         2H1py         2H1px     
    1    3H1s          3H2s          3H1pz         3H1py         3H1px         4N1s          4N2s          4N3s          4N1pz         4N1py     
    2    4N1px         4N2pz         4N2py         4N2px         4N1d-2        4N1d-1        4N1d0         4N1d+1        4N1d+2    
 
 Maximum number of basis functions per shell:   49
 Total number of basis functions:     29
 
 
 Character table for point group C1:
 
          E  
    A     1
 
 Number of basis functions per irrep:
    A     367
 
 
 Calculation of overlap integrals...
 CPU time [min]:     0.141                   Wall time [min]:     0.004
 
 Calculation of the square root of the overlap matrix...
 Minimum eigenvalue of the overlap matrix: 0.950608E-05
 CPU time [min]:     0.181                   Wall time [min]:     0.005
 
 Calculation of kinetic energy integrals...
 CPU time [min]:     0.184                   Wall time [min]:     0.005
 Calculation of dipole moment integrals...
 CPU time [min]:     0.188                   Wall time [min]:     0.006
 Calculation of nuclear attraction integrals...
 CPU time [min]:     0.193                   Wall time [min]:     0.006
 Calculation of overlap integrals...
 CPU time [min]:     0.196                   Wall time [min]:     0.006
 
 Calculation of prescreening integrals...
 CPU time [min]:     1.498                   Wall time [min]:     0.026
 
 Calculation of two-center Coulomb integrals...
   1% done.
  12% done.
  26% done.
  37% done.
  50% done.
  69% done.
  80% done.
  91% done.
 100% done.
 CPU time [min]:     1.514                   Wall time [min]:     0.026
 
 Cholesky decomposition of the two-center matrix...
 Reciprocal of the condition number:  0.989457E-05
 CPU time [min]:     1.529                   Wall time [min]:     0.026
 

 ************************ 2026-02-26 16:02:16 *************************
 Executing scf...

 @scfsetup: integrals calculated directly
            mrcc/integ direct run
 @scfsetup: calculating on full matrices
            not using symmetry adapted basis
 @scfsetup: diis switched on
 @scfsetup: number of steps to extrapolate from  10
 @scfsetup: tolerance in energy deviation    0.100000E-07
            tolerance in density deviation    0.100000E-08
 @scfsetup: maximum number of iterations: 200
 @scfsetup: restricted closed shell hf calc
 @scfsetup: restarting scf from SCFDENSITIES file
 @scfsetup: occupation set:
            from initial orbitals
 @scfsetup: Parameter-set for SCF acceleration: normal
 @scfsetup: diis runs from iteration:   2
 @scfsetup: diis runs to iteration: 200
 @scfsetup: diis runs in every iteration
 @scfsetup: diiswatch is disabled                   
 @scfsetup: diis dtol criteria to switch on:      0.0000E+00
           (or the iteration number below is reached)
 @scfsetup: static damping scheme
            iteration step criteria to turn damping off: 3
 @scfsetup: dynamic level shifting
            tolarance in HOMO-LUMO gap:  0.200
            tolarance in density deviation:     0.0000E+00
            iteration step criteria to turn level shifting off: 8
 Allocation of 46.0 Gbytes of memory...
 ======================================================================
 ITERATION STEP   1
 CPU time [min]:     0.058                   Wall time [min]:     0.009
 

 SCF control                  : initial
 Damping factor/level shift   : 0.000/0.200
 DIIS [start/end/frequency]   :   2 /200 /  1

 Constructing Fock-matrix...
 Inverse square root: The matrix is not positive definite!
 
 Pipek-Mezey localization...
 Step  Convergence
   1   1.067454939418
   2   0.023164398098
   3   0.000127657958
   4   0.000003069540
   5   0.000000027042
   6   0.000000000220
 CPU time [min]:     0.088                   Wall time [min]:     0.009
 
 Constructing local fitting domains...
 Maximum number of atoms in fitting domains:    4
 Average number of atoms in fitting domains:    4.0
 
 First step of Coulomb + first step of exchange...
 Exchange contribution is evaluated for MOs 1 to 5.
   1% done.
  15% done.
  30% done.
  43% done.
  62% done.
  75% done.
  88% done.
 100% done.
 Fitting and assembly step of exchange...
 CPU time [min]:     0.410                   Wall time [min]:     0.014
 
 Second step of Coulomb...
   1% done.
  15% done.
  30% done.
  43% done.
  62% done.
  75% done.
  88% done.
 100% done.
 CPU time [min]:     0.568                   Wall time [min]:     0.017
 
 Gradient norm:      1.7887E+00
 RMS of [F,P]:                                         0.00708656847085
 RMS of difference density:                            0.01067897594520
 Gap [au]:  0.45061523
 ALPHA OCC:   5
 BETA  OCC:   5
 
 ***HARTREE-FOCK ENERGY IN STEP   1 IS        -56.1720108049880338 [AU]
 ======================================================================
 ITERATION STEP   2
 CPU time [min]:     0.612                   Wall time [min]:     0.018
 

 SCF control                  : diis
 Damping factor/level shift   : 0.000/0.000
 DIIS [start/end/frequency]   :   2 /200 /  1

 Constructing Fock-matrix...
 
 Pipek-Mezey localization...
 Step  Convergence
   1   0.020091556924
   2   0.021665472937
   3   0.000101160010
   4   0.000000599682
   5   0.000000001769
 CPU time [min]:     0.636                   Wall time [min]:     0.018
 
 Constructing local fitting domains...
 Maximum number of atoms in fitting domains:    4
 Average number of atoms in fitting domains:    4.0
 
 First step of Coulomb + first step of exchange...
 Exchange contribution is evaluated for MOs 1 to 5.
   1% done.
  15% done.
  30% done.
  43% done.
  62% done.
  75% done.
  88% done.
 100% done.
 Fitting and assembly step of exchange...
 CPU time [min]:     0.939                   Wall time [min]:     0.023
 
 Second step of Coulomb...
   1% done.
  15% done.
  30% done.
  43% done.
  62% done.
  75% done.
  88% done.
 100% done.
 CPU time [min]:     1.096                   Wall time [min]:     0.025
 
 Gradient norm:      4.6189E-02
 DIIS is running in this iteration step.
 RMS of [F,P]:                                         0.00021537711065
 RMS of difference density:                            0.00121916389179
 Gap [au]:  0.45278415
 ALPHA OCC:   5
 BETA  OCC:   5
 
 ***HARTREE-FOCK ENERGY IN STEP   2 IS        -56.2230943007595272 [AU]
 
 Step comparison  Energy Drift [au]  DIIS error drift  Gradient drift
        1            5.1083E-02         6.8712E-03       1.7425E+00
        2            5.6223E+01         1.0000E-09       1.7425E+00
 ======================================================================
 ITERATION STEP   3
 CPU time [min]:     1.136                   Wall time [min]:     0.026
 

 SCF control                  : diis
 Damping factor/level shift   : 0.000/0.000
 DIIS [start/end/frequency]   :   2 /200 /  1

 Constructing Fock-matrix...
 
 Pipek-Mezey localization...
 Step  Convergence
   1   0.019976776895
   2   0.021617670340
   3   0.000097739152
   4   0.000000577411
   5   0.000000002920
 CPU time [min]:     1.161                   Wall time [min]:     0.026
 
 Constructing local fitting domains...
 Local fitting domains are unchanged.
 
 First step of Coulomb + first step of exchange...
 Exchange contribution is evaluated for MOs 1 to 5.
   1% done.
  15% done.
  30% done.
  43% done.
  62% done.
  75% done.
  88% done.
 100% done.
 Fitting and assembly step of exchange...
 CPU time [min]:     1.460                   Wall time [min]:     0.031
 
 Second step of Coulomb...
   1% done.
  15% done.
  30% done.
  43% done.
  62% done.
  75% done.
  88% done.
 100% done.
 CPU time [min]:     1.616                   Wall time [min]:     0.033
 
 Gradient norm:      9.0286E-03
 DIIS is running in this iteration step.
 RMS of [F,P]:                                         0.00005326621353
 RMS of difference density:                            0.00027952750989
 Gap [au]:  0.45516289
 ALPHA OCC:   5
 BETA  OCC:   5
 
 ***HARTREE-FOCK ENERGY IN STEP   3 IS        -56.2240407119677315 [AU]
 
 Step comparison  Energy Drift [au]  DIIS error drift  Gradient drift
        2            9.4641E-04         1.6211E-04       3.7160E-02
 ======================================================================
 ITERATION STEP   4
 CPU time [min]:     1.655                   Wall time [min]:     0.034
 

 SCF control                  : diis
 Damping factor/level shift   : 0.000/0.000
 DIIS [start/end/frequency]   :   2 /200 /  1

 Constructing Fock-matrix...
 
 Pipek-Mezey localization...
 Step  Convergence
   1   0.019971915176
   2   0.021620236980
   3   0.000099248700
   4   0.000000557626
   5   0.000000001756
 CPU time [min]:     1.680                   Wall time [min]:     0.035
 
 Constructing local fitting domains...
 Local fitting domains are unchanged.
 
 First step of Coulomb + first step of exchange...
 Exchange contribution is evaluated for MOs 1 to 5.
   1% done.
  15% done.
  30% done.
  43% done.
  62% done.
  75% done.
  88% done.
 100% done.
 Fitting and assembly step of exchange...
 CPU time [min]:     1.979                   Wall time [min]:     0.039
 
 Second step of Coulomb...
   1% done.
  15% done.
  30% done.
  43% done.
  62% done.
  75% done.
  88% done.
 100% done.
 CPU time [min]:     2.137                   Wall time [min]:     0.042
 
 Gradient norm:      4.0424E-03
 DIIS is running in this iteration step.
 RMS of [F,P]:                                         0.00002060783236
 RMS of difference density:                            0.00005099276731
 Gap [au]:  0.45301739
 ALPHA OCC:   5
 BETA  OCC:   5
 
 ***HARTREE-FOCK ENERGY IN STEP   4 IS        -56.2241737615116008 [AU]
 
 Step comparison  Energy Drift [au]  DIIS error drift  Gradient drift
        3            1.3305E-04         3.2658E-05       4.9862E-03
 ======================================================================
 ITERATION STEP   5
 CPU time [min]:     2.176                   Wall time [min]:     0.042
 

 SCF control                  : diis
 Damping factor/level shift   : 0.000/0.000
 DIIS [start/end/frequency]   :   2 /200 /  1

 Constructing Fock-matrix...
 
 Pipek-Mezey localization...
 Step  Convergence
   1   0.041256027445
   2   0.038863792206
   3   0.000226292009
   4   0.000003535415
   5   0.000000058904
   6   0.000000001032
 CPU time [min]:     2.201                   Wall time [min]:     0.043
 
 Constructing local fitting domains...
 Local fitting domains are unchanged.
 
 First step of Coulomb + first step of exchange...
 Exchange contribution is evaluated for MOs 1 to 5.
   1% done.
  15% done.
  30% done.
  43% done.
  62% done.
  75% done.
  88% done.
 100% done.
 Fitting and assembly step of exchange...
 CPU time [min]:     2.500                   Wall time [min]:     0.048
 
 Second step of Coulomb...
   1% done.
  15% done.
  30% done.
  43% done.
  62% done.
  75% done.
  88% done.
 100% done.
 CPU time [min]:     2.657                   Wall time [min]:     0.050
 
 Gradient norm:      1.2917E-03
 DIIS is running in this iteration step.
 RMS of [F,P]:                                         0.00001006313634
 RMS of difference density:                            0.00002268484766
 Gap [au]:  0.45320859
 ALPHA OCC:   5
 BETA  OCC:   5
 
 ***HARTREE-FOCK ENERGY IN STEP   5 IS        -56.2241917435529146 [AU]
 
 Step comparison  Energy Drift [au]  DIIS error drift  Gradient drift
        4            1.7982E-05         1.0545E-05       2.7506E-03
 ======================================================================
 ITERATION STEP   6
 CPU time [min]:     2.696                   Wall time [min]:     0.051
 

 SCF control                  : diis
 Damping factor/level shift   : 0.000/0.000
 DIIS [start/end/frequency]   :   2 /200 /  1

 Constructing Fock-matrix...
 
 Pipek-Mezey localization...
 Step  Convergence
   1   0.029941379213
   2   0.026968808246
   3   0.000282976684
   4   0.000003843798
   5   0.000000023407
   6   0.000000000228
   7   0.000000000003
   8   0.000000000000
 CPU time [min]:     2.721                   Wall time [min]:     0.051
 
 Constructing local fitting domains...
 Local fitting domains are unchanged.
 
 First step of Coulomb + first step of exchange...
 Exchange contribution is evaluated for MOs 1 to 5.
   1% done.
  15% done.
  30% done.
  43% done.
  62% done.
  75% done.
  88% done.
 100% done.
 Fitting and assembly step of exchange...
 CPU time [min]:     3.021                   Wall time [min]:     0.056
 
 Second step of Coulomb...
   1% done.
  15% done.
  30% done.
  43% done.
  62% done.
  75% done.
  88% done.
 100% done.
 CPU time [min]:     3.177                   Wall time [min]:     0.058
 
 Gradient norm:      3.1407E-04
 DIIS is running in this iteration step.
 RMS of [F,P]:                                         0.00000150358153
 RMS of difference density:                            0.00000691077708
 Gap [au]:  0.45303927
 ALPHA OCC:   5
 BETA  OCC:   5
 
 ***HARTREE-FOCK ENERGY IN STEP   6 IS        -56.2241955408318859 [AU]
 
 Step comparison  Energy Drift [au]  DIIS error drift  Gradient drift
        5            3.7973E-06         8.5596E-06       9.7768E-04
 ======================================================================
 ITERATION STEP   7
 CPU time [min]:     3.217                   Wall time [min]:     0.059
 

 SCF control                  : diis
 Damping factor/level shift   : 0.000/0.000
 DIIS [start/end/frequency]   :   2 /200 /  1

 Constructing Fock-matrix...
 
 Pipek-Mezey localization...
 Step  Convergence
   1   0.040115299710
   2   0.039249262679
   3   0.000277802709
   4   0.000005260785
   5   0.000000039240
   6   0.000000000397
   7   0.000000000010
   8   0.000000000000
 CPU time [min]:     3.242                   Wall time [min]:     0.059
 
 Constructing local fitting domains...
 Local fitting domains are unchanged.
 
 First step of Coulomb + first step of exchange...
 Exchange contribution is evaluated for MOs 1 to 5.
   1% done.
  15% done.
  30% done.
  43% done.
  62% done.
  75% done.
  88% done.
 100% done.
 Fitting and assembly step of exchange...
 CPU time [min]:     3.541                   Wall time [min]:     0.064
 
 Second step of Coulomb...
   1% done.
  15% done.
  30% done.
  43% done.
  62% done.
  75% done.
  88% done.
 100% done.
 CPU time [min]:     3.697                   Wall time [min]:     0.067
 
 Gradient norm:      4.2697E-05
 DIIS is running in this iteration step.
 RMS of [F,P]:                                         0.00000021278837
 RMS of difference density:                            0.00000051458250
 Gap [au]:  0.45303347
 ALPHA OCC:   5
 BETA  OCC:   5
 
 ***HARTREE-FOCK ENERGY IN STEP   7 IS        -56.2241956175085278 [AU]
 
 Step comparison  Energy Drift [au]  DIIS error drift  Gradient drift
        6            7.6677E-08         1.2908E-06       2.7137E-04
 ======================================================================
 ITERATION STEP   8
 CPU time [min]:     3.738                   Wall time [min]:     0.067
 

 SCF control                  : diis
 Damping factor/level shift   : 0.000/0.000
 DIIS [start/end/frequency]   :   2 /200 /  1

 Constructing Fock-matrix...
 
 Pipek-Mezey localization...
 Step  Convergence
   1   0.040457630217
   2   0.039128339944
   3   0.000155307756
   4   0.000002396395
   5   0.000000015682
   6   0.000000000037
   7   0.000000000001
 CPU time [min]:     3.763                   Wall time [min]:     0.068
 
 Constructing local fitting domains...
 Local fitting domains are unchanged.
 
 First step of Coulomb + first step of exchange...
 Exchange contribution is evaluated for MOs 1 to 5.
   1% done.
  15% done.
  30% done.
  43% done.
  62% done.
  75% done.
  88% done.
 100% done.
 Fitting and assembly step of exchange...
 CPU time [min]:     4.062                   Wall time [min]:     0.072
 
 Second step of Coulomb...
   1% done.
  15% done.
  30% done.
  43% done.
  62% done.
  75% done.
  88% done.
 100% done.
 CPU time [min]:     4.218                   Wall time [min]:     0.075
 
 Gradient norm:      1.6088E-05
 DIIS is running in this iteration step.
 RMS of [F,P]:                                         0.00000007375325
 RMS of difference density:                            0.00000021771618
 Gap [au]:  0.45303346
 ALPHA OCC:   5
 BETA  OCC:   5
 
 ***HARTREE-FOCK ENERGY IN STEP   8 IS        -56.2241956201693398 [AU]
 
 Step comparison  Energy Drift [au]  DIIS error drift  Gradient drift
        7            2.6608E-09         1.3904E-07       2.6609E-05
 ======================================================================
 ITERATION STEP   9
 CPU time [min]:     4.257                   Wall time [min]:     0.076
 

 SCF control                  : diis
 Damping factor/level shift   : 0.000/0.000
 DIIS [start/end/frequency]   :   2 /200 /  1

 Constructing Fock-matrix...
 
 Pipek-Mezey localization...
 Step  Convergence
   1   0.040118900785
   2   0.039448455341
   3   0.000274602663
   4   0.000005442677
   5   0.000000083965
   6   0.000000001247
   7   0.000000000025
   8   0.000000000000
 CPU time [min]:     4.282                   Wall time [min]:     0.076
 
 Constructing local fitting domains...
 Local fitting domains are unchanged.
 
 First step of Coulomb + first step of exchange...
 Exchange contribution is evaluated for MOs 1 to 5.
   1% done.
  15% done.
  30% done.
  43% done.
  62% done.
  75% done.
  88% done.
 100% done.
 Fitting and assembly step of exchange...
 CPU time [min]:     4.580                   Wall time [min]:     0.081
 
 Second step of Coulomb...
   1% done.
  15% done.
  30% done.
  43% done.
  62% done.
  75% done.
  88% done.
 100% done.
 CPU time [min]:     4.736                   Wall time [min]:     0.083
 
 Gradient norm:      3.7654E-06
 DIIS is running in this iteration step.
 RMS of [F,P]:                                         0.00000001733337
 RMS of difference density:                            0.00000004722810
 Gap [au]:  0.45303332
 ALPHA OCC:   5
 BETA  OCC:   5
 
 ***HARTREE-FOCK ENERGY IN STEP   9 IS        -56.2241956204951663 [AU]
 
 Step comparison  Energy Drift [au]  DIIS error drift  Gradient drift
        8            3.2583E-10         5.6420E-08       1.2322E-05
 ======================================================================
 ITERATION STEP  10
 CPU time [min]:     4.776                   Wall time [min]:     0.084
 

[...]
    5    1H2f-2        1H2f-1        1H2f0         1H2f+1        1H2f+2        1H2f+3        1H3f-3        1H3f-2        1H3f-1        1H3f0     
    6    1H3f+1        1H3f+2        1H3f+3        1H4f-3        1H4f-2        1H4f-1        1H4f0         1H4f+1        1H4f+2        1H4f+3    
    7    1H1g-4        1H1g-3        1H1g-2        1H1g-1        1H1g0         1H1g+1        1H1g+2        1H1g+3        1H1g+4        1H2g-4    
    8    1H2g-3        1H2g-2        1H2g-1        1H2g0         1H2g+1        1H2g+2        1H2g+3        1H2g+4        1H3g-4        1H3g-3    
    9    1H3g-2        1H3g-1        1H3g0         1H3g+1        1H3g+2        1H3g+3        1H3g+4        1H1h-5        1H1h-4        1H1h-3    
   10    1H1h-2        1H1h-1        1H1h0         1H1h+1        1H1h+2        1H1h+3        1H1h+4        1H1h+5        1H2h-5        1H2h-4    
   11    1H2h-3        1H2h-2        1H2h-1        1H2h0         1H2h+1        1H2h+2        1H2h+3        1H2h+4        1H2h+5        2H1s      
   12    2H2s          2H3s          2H4s          2H5s          2H1pz         2H1py         2H1px         2H2pz         2H2py         2H2px     
   13    2H3pz         2H3py         2H3px         2H4pz         2H4py         2H4px         2H1d-2        2H1d-1        2H1d0         2H1d+1    
   14    2H1d+2        2H2d-2        2H2d-1        2H2d0         2H2d+1        2H2d+2        2H3d-2        2H3d-1        2H3d0         2H3d+1    
   15    2H3d+2        2H4d-2        2H4d-1        2H4d0         2H4d+1        2H4d+2        2H5d-2        2H5d-1        2H5d0         2H5d+1    
   16    2H5d+2        2H1f-3        2H1f-2        2H1f-1        2H1f0         2H1f+1        2H1f+2        2H1f+3        2H2f-3        2H2f-2    
   17    2H2f-1        2H2f0         2H2f+1        2H2f+2        2H2f+3        2H3f-3        2H3f-2        2H3f-1        2H3f0         2H3f+1    
   18    2H3f+2        2H3f+3        2H4f-3        2H4f-2        2H4f-1        2H4f0         2H4f+1        2H4f+2        2H4f+3        2H1g-4    
   19    2H1g-3        2H1g-2        2H1g-1        2H1g0         2H1g+1        2H1g+2        2H1g+3        2H1g+4        2H2g-4        2H2g-3    
   20    2H2g-2        2H2g-1        2H2g0         2H2g+1        2H2g+2        2H2g+3        2H2g+4        2H3g-4        2H3g-3        2H3g-2    
   21    2H3g-1        2H3g0         2H3g+1        2H3g+2        2H3g+3        2H3g+4        2H1h-5        2H1h-4        2H1h-3        2H1h-2    
   22    2H1h-1        2H1h0         2H1h+1        2H1h+2        2H1h+3        2H1h+4        2H1h+5        2H2h-5        2H2h-4        2H2h-3    
   23    2H2h-2        2H2h-1        2H2h0         2H2h+1        2H2h+2        2H2h+3        2H2h+4        2H2h+5        3H1s          3H2s      
   24    3H3s          3H4s          3H5s          3H1pz         3H1py         3H1px         3H2pz         3H2py         3H2px         3H3pz     
   25    3H3py         3H3px         3H4pz         3H4py         3H4px         3H1d-2        3H1d-1        3H1d0         3H1d+1        3H1d+2    
   26    3H2d-2        3H2d-1        3H2d0         3H2d+1        3H2d+2        3H3d-2        3H3d-1        3H3d0         3H3d+1        3H3d+2    
   27    3H4d-2        3H4d-1        3H4d0         3H4d+1        3H4d+2        3H5d-2        3H5d-1        3H5d0         3H5d+1        3H5d+2    
   28    3H1f-3        3H1f-2        3H1f-1        3H1f0         3H1f+1        3H1f+2        3H1f+3        3H2f-3        3H2f-2        3H2f-1    
   29    3H2f0         3H2f+1        3H2f+2        3H2f+3        3H3f-3        3H3f-2        3H3f-1        3H3f0         3H3f+1        3H3f+2    
   30    3H3f+3        3H4f-3        3H4f-2        3H4f-1        3H4f0         3H4f+1        3H4f+2        3H4f+3        3H1g-4        3H1g-3    
   31    3H1g-2        3H1g-1        3H1g0         3H1g+1        3H1g+2        3H1g+3        3H1g+4        3H2g-4        3H2g-3        3H2g-2    
   32    3H2g-1        3H2g0         3H2g+1        3H2g+2        3H2g+3        3H2g+4        3H3g-4        3H3g-3        3H3g-2        3H3g-1    
   33    3H3g0         3H3g+1        3H3g+2        3H3g+3        3H3g+4        3H1h-5        3H1h-4        3H1h-3        3H1h-2        3H1h-1    
   34    3H1h0         3H1h+1        3H1h+2        3H1h+3        3H1h+4        3H1h+5        3H2h-5        3H2h-4        3H2h-3        3H2h-2    
   35    3H2h-1        3H2h0         3H2h+1        3H2h+2        3H2h+3        3H2h+4        3H2h+5        4N1s          4N2s          4N3s      
   36    4N4s          4N5s          4N6s          4N7s          4N8s          4N9s          4N10s         4N11s         4N1pz         4N1py     
   37    4N1px         4N2pz         4N2py         4N2px         4N3pz         4N3py         4N3px         4N4pz         4N4py         4N4px     
   38    4N5pz         4N5py         4N5px         4N6pz         4N6py         4N6px         4N7pz         4N7py         4N7px         4N8pz     
   39    4N8py         4N8px         4N1d-2        4N1d-1        4N1d0         4N1d+1        4N1d+2        4N2d-2        4N2d-1        4N2d0     
   40    4N2d+1        4N2d+2        4N3d-2        4N3d-1        4N3d0         4N3d+1        4N3d+2        4N4d-2        4N4d-1        4N4d0     
   41    4N4d+1        4N4d+2        4N5d-2        4N5d-1        4N5d0         4N5d+1        4N5d+2        4N6d-2        4N6d-1        4N6d0     
   42    4N6d+1        4N6d+2        4N1f-3        4N1f-2        4N1f-1        4N1f0         4N1f+1        4N1f+2        4N1f+3        4N2f-3    
   43    4N2f-2        4N2f-1        4N2f0         4N2f+1        4N2f+2        4N2f+3        4N3f-3        4N3f-2        4N3f-1        4N3f0     
   44    4N3f+1        4N3f+2        4N3f+3        4N4f-3        4N4f-2        4N4f-1        4N4f0         4N4f+1        4N4f+2        4N4f+3    
   45    4N5f-3        4N5f-2        4N5f-1        4N5f0         4N5f+1        4N5f+2        4N5f+3        4N1g-4        4N1g-3        4N1g-2    
   46    4N1g-1        4N1g0         4N1g+1        4N1g+2        4N1g+3        4N1g+4        4N2g-4        4N2g-3        4N2g-2        4N2g-1    
   47    4N2g0         4N2g+1        4N2g+2        4N2g+3        4N2g+4        4N3g-4        4N3g-3        4N3g-2        4N3g-1        4N3g0     
   48    4N3g+1        4N3g+2        4N3g+3        4N3g+4        4N4g-4        4N4g-3        4N4g-2        4N4g-1        4N4g0         4N4g+1    
   49    4N4g+2        4N4g+3        4N4g+4        4N1h-5        4N1h-4        4N1h-3        4N1h-2        4N1h-1        4N1h0         4N1h+1    
   50    4N1h+2        4N1h+3        4N1h+4        4N1h+5        4N2h-5        4N2h-4        4N2h-3        4N2h-2        4N2h-1        4N2h0     
   51    4N2h+1        4N2h+2        4N2h+3        4N2h+4        4N2h+5        4N3h-5        4N3h-4        4N3h-3        4N3h-2        4N3h-1    
   52    4N3h0         4N3h+1        4N3h+2        4N3h+3        4N3h+4        4N3h+5        4N1i-6        4N1i-5        4N1i-4        4N1i-3    
   53    4N1i-2        4N1i-1        4N1i0         4N1i+1        4N1i+2        4N1i+3        4N1i+4        4N1i+5        4N1i+6        4N2i-6    
   54    4N2i-5        4N2i-4        4N2i-3        4N2i-2        4N2i-1        4N2i0         4N2i+1        4N2i+2        4N2i+3        4N2i+4    
   55    4N2i+5        4N2i+6    
 
 Maximum number of basis functions per shell:   36
 Total number of basis functions:    552
 
 
 Fitting basis set for the correlation calculation:
 
   1  H  aug-cc-pv5z-ri [ 7s 6p 5d 4f 3g 2h | 7s 6p 5d 4f 3g 2h ]
   2  H  aug-cc-pv5z-ri [ 7s 6p 5d 4f 3g 2h | 7s 6p 5d 4f 3g 2h ]
   3  H  aug-cc-pv5z-ri [ 7s 6p 5d 4f 3g 2h | 7s 6p 5d 4f 3g 2h ]
   4  N  aug-cc-pv5z-ri [ 11s 9p 8d 7f 5g 4h 2i | 11s 9p 8d 7f 5g 4h 2i ]
 
 Basis functions:
            1             2             3             4             5             6             7             8             9            10
    0    1H1s          1H2s          1H3s          1H4s          1H5s          1H6s          1H7s          1H1pz         1H1py         1H1px     
    1    1H2pz         1H2py         1H2px         1H3pz         1H3py         1H3px         1H4pz         1H4py         1H4px         1H5pz     
    2    1H5py         1H5px         1H6pz         1H6py         1H6px         1H1d-2        1H1d-1        1H1d0         1H1d+1        1H1d+2    
    3    1H2d-2        1H2d-1        1H2d0         1H2d+1        1H2d+2        1H3d-2        1H3d-1        1H3d0         1H3d+1        1H3d+2    
    4    1H4d-2        1H4d-1        1H4d0         1H4d+1        1H4d+2        1H5d-2        1H5d-1        1H5d0         1H5d+1        1H5d+2    
    5    1H1f-3        1H1f-2        1H1f-1        1H1f0         1H1f+1        1H1f+2        1H1f+3        1H2f-3        1H2f-2        1H2f-1    
    6    1H2f0         1H2f+1        1H2f+2        1H2f+3        1H3f-3        1H3f-2        1H3f-1        1H3f0         1H3f+1        1H3f+2    
    7    1H3f+3        1H4f-3        1H4f-2        1H4f-1        1H4f0         1H4f+1        1H4f+2        1H4f+3        1H1g-4        1H1g-3    
    8    1H1g-2        1H1g-1        1H1g0         1H1g+1        1H1g+2        1H1g+3        1H1g+4        1H2g-4        1H2g-3        1H2g-2    
    9    1H2g-1        1H2g0         1H2g+1        1H2g+2        1H2g+3        1H2g+4        1H3g-4        1H3g-3        1H3g-2        1H3g-1    
   10    1H3g0         1H3g+1        1H3g+2        1H3g+3        1H3g+4        1H1h-5        1H1h-4        1H1h-3        1H1h-2        1H1h-1    
   11    1H1h0         1H1h+1        1H1h+2        1H1h+3        1H1h+4        1H1h+5        1H2h-5        1H2h-4        1H2h-3        1H2h-2    
   12    1H2h-1        1H2h0         1H2h+1        1H2h+2        1H2h+3        1H2h+4        1H2h+5        2H1s          2H2s          2H3s      
   13    2H4s          2H5s          2H6s          2H7s          2H1pz         2H1py         2H1px         2H2pz         2H2py         2H2px     
   14    2H3pz         2H3py         2H3px         2H4pz         2H4py         2H4px         2H5pz         2H5py         2H5px         2H6pz     
   15    2H6py         2H6px         2H1d-2        2H1d-1        2H1d0         2H1d+1        2H1d+2        2H2d-2        2H2d-1        2H2d0     
   16    2H2d+1        2H2d+2        2H3d-2        2H3d-1        2H3d0         2H3d+1        2H3d+2        2H4d-2        2H4d-1        2H4d0     
   17    2H4d+1        2H4d+2        2H5d-2        2H5d-1        2H5d0         2H5d+1        2H5d+2        2H1f-3        2H1f-2        2H1f-1    
   18    2H1f0         2H1f+1        2H1f+2        2H1f+3        2H2f-3        2H2f-2        2H2f-1        2H2f0         2H2f+1        2H2f+2    
   19    2H2f+3        2H3f-3        2H3f-2        2H3f-1        2H3f0         2H3f+1        2H3f+2        2H3f+3        2H4f-3        2H4f-2    
   20    2H4f-1        2H4f0         2H4f+1        2H4f+2        2H4f+3        2H1g-4        2H1g-3        2H1g-2        2H1g-1        2H1g0     
   21    2H1g+1        2H1g+2        2H1g+3        2H1g+4        2H2g-4        2H2g-3        2H2g-2        2H2g-1        2H2g0         2H2g+1    
   22    2H2g+2        2H2g+3        2H2g+4        2H3g-4        2H3g-3        2H3g-2        2H3g-1        2H3g0         2H3g+1        2H3g+2    
   23    2H3g+3        2H3g+4        2H1h-5        2H1h-4        2H1h-3        2H1h-2        2H1h-1        2H1h0         2H1h+1        2H1h+2    
   24    2H1h+3        2H1h+4        2H1h+5        2H2h-5        2H2h-4        2H2h-3        2H2h-2        2H2h-1        2H2h0         2H2h+1    
   25    2H2h+2        2H2h+3        2H2h+4        2H2h+5        3H1s          3H2s          3H3s          3H4s          3H5s          3H6s      
   26    3H7s          3H1pz         3H1py         3H1px         3H2pz         3H2py         3H2px         3H3pz         3H3py         3H3px     
   27    3H4pz         3H4py         3H4px         3H5pz         3H5py         3H5px         3H6pz         3H6py         3H6px         3H1d-2    
   28    3H1d-1        3H1d0         3H1d+1        3H1d+2        3H2d-2        3H2d-1        3H2d0         3H2d+1        3H2d+2        3H3d-2    
   29    3H3d-1        3H3d0         3H3d+1        3H3d+2        3H4d-2        3H4d-1        3H4d0         3H4d+1        3H4d+2        3H5d-2    
   30    3H5d-1        3H5d0         3H5d+1        3H5d+2        3H1f-3        3H1f-2        3H1f-1        3H1f0         3H1f+1        3H1f+2    
   31    3H1f+3        3H2f-3        3H2f-2        3H2f-1        3H2f0         3H2f+1        3H2f+2        3H2f+3        3H3f-3        3H3f-2    
   32    3H3f-1        3H3f0         3H3f+1        3H3f+2        3H3f+3        3H4f-3        3H4f-2        3H4f-1        3H4f0         3H4f+1    
   33    3H4f+2        3H4f+3        3H1g-4        3H1g-3        3H1g-2        3H1g-1        3H1g0         3H1g+1        3H1g+2        3H1g+3    
   34    3H1g+4        3H2g-4        3H2g-3        3H2g-2        3H2g-1        3H2g0         3H2g+1        3H2g+2        3H2g+3        3H2g+4    
   35    3H3g-4        3H3g-3        3H3g-2        3H3g-1        3H3g0         3H3g+1        3H3g+2        3H3g+3        3H3g+4        3H1h-5    
   36    3H1h-4        3H1h-3        3H1h-2        3H1h-1        3H1h0         3H1h+1        3H1h+2        3H1h+3        3H1h+4        3H1h+5    
   37    3H2h-5        3H2h-4        3H2h-3        3H2h-2        3H2h-1        3H2h0         3H2h+1        3H2h+2        3H2h+3        3H2h+4    
   38    3H2h+5        4N1s          4N2s          4N3s          4N4s          4N5s          4N6s          4N7s          4N8s          4N9s      
   39    4N10s         4N11s         4N1pz         4N1py         4N1px         4N2pz         4N2py         4N2px         4N3pz         4N3py     
   40    4N3px         4N4pz         4N4py         4N4px         4N5pz         4N5py         4N5px         4N6pz         4N6py         4N6px     
   41    4N7pz         4N7py         4N7px         4N8pz         4N8py         4N8px         4N9pz         4N9py         4N9px         4N1d-2    
   42    4N1d-1        4N1d0         4N1d+1        4N1d+2        4N2d-2        4N2d-1        4N2d0         4N2d+1        4N2d+2        4N3d-2    
   43    4N3d-1        4N3d0         4N3d+1        4N3d+2        4N4d-2        4N4d-1        4N4d0         4N4d+1        4N4d+2        4N5d-2    
   44    4N5d-1        4N5d0         4N5d+1        4N5d+2        4N6d-2        4N6d-1        4N6d0         4N6d+1        4N6d+2        4N7d-2    
   45    4N7d-1        4N7d0         4N7d+1        4N7d+2        4N8d-2        4N8d-1        4N8d0         4N8d+1        4N8d+2        4N1f-3    
   46    4N1f-2        4N1f-1        4N1f0         4N1f+1        4N1f+2        4N1f+3        4N2f-3        4N2f-2        4N2f-1        4N2f0     
   47    4N2f+1        4N2f+2        4N2f+3        4N3f-3        4N3f-2        4N3f-1        4N3f0         4N3f+1        4N3f+2        4N3f+3    
   48    4N4f-3        4N4f-2        4N4f-1        4N4f0         4N4f+1        4N4f+2        4N4f+3        4N5f-3        4N5f-2        4N5f-1    
   49    4N5f0         4N5f+1        4N5f+2        4N5f+3        4N6f-3        4N6f-2        4N6f-1        4N6f0         4N6f+1        4N6f+2    
   50    4N6f+3        4N7f-3        4N7f-2        4N7f-1        4N7f0         4N7f+1        4N7f+2        4N7f+3        4N1g-4        4N1g-3    
   51    4N1g-2        4N1g-1        4N1g0         4N1g+1        4N1g+2        4N1g+3        4N1g+4        4N2g-4        4N2g-3        4N2g-2    
   52    4N2g-1        4N2g0         4N2g+1        4N2g+2        4N2g+3        4N2g+4        4N3g-4        4N3g-3        4N3g-2        4N3g-1    
   53    4N3g0         4N3g+1        4N3g+2        4N3g+3        4N3g+4        4N4g-4        4N4g-3        4N4g-2        4N4g-1        4N4g0     
   54    4N4g+1        4N4g+2        4N4g+3        4N4g+4        4N5g-4        4N5g-3        4N5g-2        4N5g-1        4N5g0         4N5g+1    
   55    4N5g+2        4N5g+3        4N5g+4        4N1h-5        4N1h-4        4N1h-3        4N1h-2        4N1h-1        4N1h0         4N1h+1    
   56    4N1h+2        4N1h+3        4N1h+4        4N1h+5        4N2h-5        4N2h-4        4N2h-3        4N2h-2        4N2h-1        4N2h0     
   57    4N2h+1        4N2h+2        4N2h+3        4N2h+4        4N2h+5        4N3h-5        4N3h-4        4N3h-3        4N3h-2        4N3h-1    
   58    4N3h0         4N3h+1        4N3h+2        4N3h+3        4N3h+4        4N3h+5        4N4h-5        4N4h-4        4N4h-3        4N4h-2    
   59    4N4h-1        4N4h0         4N4h+1        4N4h+2        4N4h+3        4N4h+4        4N4h+5        4N1i-6        4N1i-5        4N1i-4    
   60    4N1i-3        4N1i-2        4N1i-1        4N1i0         4N1i+1        4N1i+2        4N1i+3        4N1i+4        4N1i+5        4N1i+6    
   61    4N2i-6        4N2i-5        4N2i-4        4N2i-3        4N2i-2        4N2i-1        4N2i0         4N2i+1        4N2i+2        4N2i+3    
   62    4N2i+4        4N2i+5        4N2i+6    
 
 Maximum number of basis functions per shell:   49
 Total number of basis functions:    623
 
 
 Old basis set for SCF restart
 
   1  H  def2-svp [ 4s 1p | 2s 1p ]
   2  H  def2-svp [ 4s 1p | 2s 1p ]
   3  H  def2-svp [ 4s 1p | 2s 1p ]
   4  N  def2-svp [ 7s 4p 1d | 3s 2p 1d ]
 
 Basis functions:
            1             2             3             4             5             6             7             8             9            10
    0    1H1s          1H2s          1H1pz         1H1py         1H1px         2H1s          2H2s          2H1pz         2H1py         2H1px     
    1    3H1s          3H2s          3H1pz         3H1py         3H1px         4N1s          4N2s          4N3s          4N1pz         4N1py     
    2    4N1px         4N2pz         4N2py         4N2px         4N1d-2        4N1d-1        4N1d0         4N1d+1        4N1d+2    
 
 Maximum number of basis functions per shell:   49
 Total number of basis functions:     29
 
 
 Calculation of prescreening integrals...
 CPU time [min]:     1.332                   Wall time [min]:     0.024
 
 Calculation of two-center Coulomb integrals...
   1% done.
  14% done.
  28% done.
  40% done.
  54% done.
  67% done.
  79% done.
  92% done.
 100% done.
 CPU time [min]:     1.350                   Wall time [min]:     0.024
 
 Cholesky decomposition of the inverse of the two-center matrix...
 CPU time [min]:     1.385                   Wall time [min]:     0.025
 
 Calculation of three-center Coulomb integrals...
   1% done.
  15% done.
  30% done.
  43% done.
  62% done.
  75% done.
  88% done.
 100% done.
 CPU time [min]:     5.016                   Wall time [min]:     0.083

 ************************ 2026-02-26 16:02:33 *************************
 Executing drpa...

 Three-index integral transformation and DF-MP2 calculation
 Allocation of 46.0 Gbytes of memory...
 
 Minimal memory requirement for (ai|P) integrals:       13.2 MB

 Calculating (ai|P) integrals...
 Number of integral batches:    1
 Occupied indices per batch:    4
 
 Transforming integrals of batch 1...
 CPU time [min]:     0.482                   Wall time [min]:     0.019
 
 
 
 Reference energy [au]:                       -56.224195620517
 DF-MP2 singlet pair energy [au]:              -0.204359011996
 DF-MP2 triplet pair energy [au]:              -0.055039717368
 DF-SCS-MP2 correlation energy [au]:           -0.263577386851
 DF-SCS-MP2 energy [au]:                      -56.487773007368
 DF-SOS-MP2 correlation energy [au]:           -0.265666715595
 DF-SOS-MP2 energy [au]:                      -56.489862336111
 DF-MP2 correlation energy [au]:               -0.259398729363
 DF-MP2 energy [au]:                          -56.483594349880
 
 ************************ 2026-02-26 16:02:35 *************************
                      Normal termination of mrcc.
 **********************************************************************
