 **********************************************************************
                          MRCC program system
 **********************************************************************
 
                              Written by
     Mihaly Kallay, Peter R. Nagy, David Mester, Laszlo Gyevi-Nagy,
        Jozsef Csoka, P. Bernat Szabo, Zoltan Rolik, Gyula Samu,
     Jozsef Csontos, Bence Hegely, Adam Ganyecz, Istvan Ladjanszki,
       Lorant Szegedy, Bence Ladoczki, Klara Petrov, Mate Farkas,
                    Pal D. Mezei, and Reka A. Horvath
 
        Department of Physical Chemistry and Materials Science
            Budapest University of Technology and Economics
                  Budapest P.O.Box 91, H-1521 Hungary
 
                              www.mrcc.hu
 
                     Release date: August 28, 2023

 ************************ 2026-02-26 22:01:03 *************************
 Executing minp...

 Reading input from MINP...
 
 Input file:
 
charge=0
mult=1
calc=LNO-CCSD(T)
basis=aug-cc-pVDZ
symm=off
verbosity=3
unit=angs
scfalg=locfit1
scfmaxit=200
scftol=8
basis_sm=def2-SVP
usedisk=0
aocd=extra
chtol=1d-6
iesttol=0.001
scfiguess=small
lcorthr=vtight
mem=46GB
ghost=serialno
9-12

geom=xyz
12

N      4.08580437245    3.60992628524    6.65101993408
H      3.73412022664    3.09785482065    5.83367042895
H      4.59792989480    4.42715858900    6.29942160276
H      3.26851213636    3.96156461954    7.16312088514
N      8.74045473454    1.52057191074    4.08577558721
H      9.55772968319    1.16893531034    4.59786809656
H      9.09213147006    2.03264798552    3.26841604077
H      8.22831293566    0.70333789254    3.73416418411
N      9.21630437245    3.60992628524    6.65101993408
H      8.86462022664    3.09785482065    5.83367042895
H      9.72842989480    4.42715858900    6.29942160276
H      8.39901213636    3.96156461954    7.16312088514
 
 
 Checking keyword combinations...
 
 Keywords:
 
 active=none
 agrid=ld0006-ld0590
 agrid_pssp=ld0006-ld0194
 agrid_pssp_sm=ld0006-ld0074
 basis=aug-cc-pvdz
 basis_sm=def2-svp
 basopt=off
 bfbasis=none
 bfgsmem=10
 bfgstol=1.0d-3
 boysalg=jacobi
 bpcompo=0.985
 bpcompv=0.98
 bpdfo=0.985
 bpocc=0.99999d0
 bppdo=0.999d0
 bppdv=0.98
 bpedo=0.99999d0
 bpedv=0.995d0
 calc=ccsd(t)
 ccmaxit=50
 ccprog=ccsd
 ccsdalg=dfdirect
 ccsdmkl=seq
 ccsdrest=off
 ccsdthreads=2
 cctol=5
 charge=0
 cialg=direct
 ciguess=off
 cmpgrp=auto
 comprest=off
 coord_sys=ric
 core=frozen
 corembed=off
 csapprox=off
 cvs=off
 dboc=off
 delocsomofact=
 dendec=cholesky
 dens=0
 denscorr=0
 dfalg=lineq
 dfbasis_cab=none
 dfbasis_cor=auto
 dfbasis_scf=auto
 dfbasis_scf_sm=auto
 dfintran=drpa
 dft=off
 dhexc=adc(2)
 diag=david
 docc=
 domrad=10.d0
 drpaalg=auto
 dual=off
 dual_df=off
 ecp=auto
 edisp=off
 edisp_embed=off
 embed=off
 epairestfact=off
 epairscale=1.d0
 etemp=300
 epert=none
 eps=
 espcharge=off
 excrad=1.0
 excrad_fin=0.100000000D-02
 fitting=coulomb
 fmm=off
 fmmord=8
 fnonorb=
 freq=off
 gamma=1.d0
 gauss=spher
 geom=xyz
 gopt=off
 ghost=serialno
 gtol=7
 grdens=off
 grid=auto
 grid_sm=auto
 gridbatch_cos=2000
 grtol=10
 guido_ct=off
 hamilton=dc
 iface=none
 intalg=auto
 ip_ea=off
 itol=12
 laptol=1.d-3
 lccoporder=lccfirst
 lcorthr=vtight
 lccrest=off
 ldfgrad_tol=8
 lmp2dens=on
 lnoepso=1e-6
 lnoepsv=1e-7
 localcc=2021
 localcorrsymm=off
 locintrf=direct
 mact=
 maxact=off
 maxdim=200
 maxex=0
 maxmicroit=100
 mcscfiguess=hf
 mem=46gb
 mmprog=
 molden=on
 mpitasks=1
 mulmet=3
 mult=1
 nab=off
 nacto=0
 nactv=0
 naf_amp=3.16d-3
 naf_cor=1e-3
 naf_f12=off
 naf_scf=off
 nafalg=albe
 nafdens=off
 naftyp=jpq
 nchol=auto
 ndeps=1e-3
 nstate=1
 nsing=0
 nto=off
 ntrip=0
 num_grad=off
 occ=
 occri=off
 oniom=off
 oniom_eechg=off
 oniom_pcm=off
 oniom_qcorr=off
 optalg=
 optmaxit=50
 optetol=1e-6
 optex=0
 optgtol=1e-4
 optstol=1e-3
 orblocc=off
 orbloce=off
 orbloco=boys
 orblocv=pao
 orblocguess=cholesky
 osveps=-1.d0
 ovirt=off
 ovltol=1e-7
 ovosnorb=80.0
 pao_subsys_tol=1e-3
 pcm=off
 popul=off
 pressure=100000
 pssp=off
 ptfreq=0.0
 ptthreads=2
 qmreg=
 qmmm=off
 qro=off
 qscf=off
 redcost_exc=off
 redcost_tddft=0.985d0
 refdet=none
 rest=0
 rgrid=log3
 rism=off
 rohfcore=standard
 rohftype=semicanonical
 scfalg=locfit1
 scf_conv=auto
 scfdamp=0.0d0
 scfdamp_mode=off
 scfdamp_end=200
 scfdamp_dampstep=0.d0
 scfdamp_dtol=0.0d0
 scfdamp_maxfact=0.0d0
 scfdamp_minfact=0.0d0
 scfdiis=on
 scfdiis_dtol=0.0d0
 scfdiis_end=200
 scfdiis_start=2
 scfdiis_step=1
 scfdiis_watch=off
 scfdiis_wrange=10
 scfdiis_wlimit=5
 scfdiis_delmax=2
 scfdtol=9
 scfext=10
 scfguessdens=
 scfiguess=small
 scfloc=pm
 scflshift=0.20
 scflshift_end=8
 scflshift_dtol=0.0
 scflshift_gaptol=0.20
 scfmaxit=200
 scftype=
 scftol=8
 scspe=1.d0
 scsph=1.d0
 scsps=1.2d0
 scsps_t=1.2d0
 scspt=0.33333333333333
 scspt_t=0.33333333333333
 scspv=1.d0
 spairtol=-1.d0
 sqmprog=
 subminp=top
 symm=0
 talg=lapl
 temp=298.15
 test=off
 theodore=off
 tlmo=0.999
 tpao=0.94
 tprint=off
 uncontract=off
 unit=angs
 usedisk=0
 verbosity=3
 wpairtol=1.d-6
 
 Calculating integrals for small-basis SCF...

 ************************ 2026-02-26 22:01:03 *************************
 Executing integ...

 Allocation of 46.0 Gbytes of memory...
 
 
 Number of atoms:                 12
 Charge:                           0
 Number of electrons:             20
 Number of core electrons:         4
 Spin multiplicity:                1
 
                 Cartesian coordinates [bohr]      Atomic mass [AMU]  Z
   1  N     7.72105127    6.82177201   12.56860613    14.003074       7
   2  H     7.05646455    5.85409719   11.02403942     1.007825       1
   3  H     8.68882825    8.36611725   11.90418158     1.007825       1
   4  H     6.17659278    7.48627216   13.53633668     1.007825       1
   5  N    16.51706566    2.87346447    7.72099687    14.003074       7
   6  H    18.06149148    2.20896759    8.68871146     1.007825       1
   7  H    17.18163838    3.84114800    6.17641118     1.007825       1
   8  H    15.54925792    1.32911599    7.05654762     1.007825       1
   9  N    17.41629115    6.82177201   12.56860613     0.000000       0
  10  H    16.75170443    5.85409719   11.02403942     0.000000       0
  11  H    18.38406813    8.36611725   11.90418158     0.000000       0
  12  H    15.87183266    7.48627216   13.53633668     0.000000       0
 
 This molecule is an asymmetric top.
 
 Point group: C1  
 Computational point group: C1  
 
 Cartesian coordinates in standard orientation [bohr]
   1  N    -5.54710022    0.09221249   -0.09258474
   2  H    -5.08725731    1.95328989    0.20522698
   3  H    -5.01638140   -0.88993579    1.49385050
   4  H    -7.48095729   -0.00853194   -0.20861172
   5  N     5.24104149    0.34564480    0.00785376
   6  H     6.34517779   -0.75096020   -1.15042913
   7  H     6.10545111    0.39567900    1.74397180
   8  H     5.27996402    2.14992177   -0.70364220
   9  N     2.48652344   -5.33374986   -0.22487182
  10  H     2.94636636   -3.47267246    0.07293989
  11  H     3.01724227   -6.31589814    1.36156341
  12  H     0.55266637   -5.43449429   -0.34089881
 
 Nuclear repulsion energy [au]:         32.571221946411
 
Warning: for H atoms in the case of dfbasis_scf=auto the AO basis is set as dfbasis_scf instead of def2-qzvp(pd)-ri-jk because the AO basis is larger. Set the dfbasis_scf=def2-qzvp(pd)-ri-jk in MINP if that is desired.
 
 
 Basis set information:
 
 Maximum angular momentum: g
 Maximum number of contracted Gaussians:   10
 Maximum number of primitive Gaussians:    14
 Spherical harmonic GTOs are used.
 
 
 Conventional basis set:
 
   1  N  def2-svp [ 7s 4p 1d | 3s 2p 1d ]
   2  H  def2-svp [ 4s 1p | 2s 1p ]
   3  H  def2-svp [ 4s 1p | 2s 1p ]
   4  H  def2-svp [ 4s 1p | 2s 1p ]
   5  N  def2-svp [ 7s 4p 1d | 3s 2p 1d ]
   6  H  def2-svp [ 4s 1p | 2s 1p ]
   7  H  def2-svp [ 4s 1p | 2s 1p ]
   8  H  def2-svp [ 4s 1p | 2s 1p ]
   9  N  def2-svp [ 7s 4p 1d | 3s 2p 1d ]
  10  H  def2-svp [ 4s 1p | 2s 1p ]
  11  H  def2-svp [ 4s 1p | 2s 1p ]
  12  H  def2-svp [ 4s 1p | 2s 1p ]
 
 Basis functions:
            1             2             3             4             5             6             7             8             9            10
    0    1N1s          1N2s          1N3s          1N1pz         1N1py         1N1px         1N2pz         1N2py         1N2px         1N1d-2    
    1    1N1d-1        1N1d0         1N1d+1        1N1d+2        2H1s          2H2s          2H1pz         2H1py         2H1px         3H1s      
    2    3H2s          3H1pz         3H1py         3H1px         4H1s          4H2s          4H1pz         4H1py         4H1px         5N1s      
    3    5N2s          5N3s          5N1pz         5N1py         5N1px         5N2pz         5N2py         5N2px         5N1d-2        5N1d-1    
    4    5N1d0         5N1d+1        5N1d+2        6H1s          6H2s          6H1pz         6H1py         6H1px         7H1s          7H2s      
    5    7H1pz         7H1py         7H1px         8H1s          8H2s          8H1pz         8H1py         8H1px         9N1s          9N2s      
    6    9N3s          9N1pz         9N1py         9N1px         9N2pz         9N2py         9N2px         9N1d-2        9N1d-1        9N1d0     
    7    9N1d+1        9N1d+2       10H1s         10H2s         10H1pz        10H1py        10H1px        11H1s         11H2s         11H1pz     
    8   11H1py        11H1px        12H1s         12H2s         12H1pz        12H1py        12H1px     
 
 Maximum number of basis functions per shell:    6
 Total number of basis functions:     87
 
 
 Fitting basis set for the SCF calculation:
 
   1  N  def2-qzvpp-ri-jk [ 14s 10p 6d 2f 1g | 10s 8p 4d 2f 1g ]
   2  H  def2-qzvpp [ 7s 3p 2d 1f | 4s 3p 2d 1f ]
   3  H  def2-qzvpp [ 7s 3p 2d 1f | 4s 3p 2d 1f ]
   4  H  def2-qzvpp [ 7s 3p 2d 1f | 4s 3p 2d 1f ]
   5  N  def2-qzvpp-ri-jk [ 14s 10p 6d 2f 1g | 10s 8p 4d 2f 1g ]
   6  H  def2-qzvpp [ 7s 3p 2d 1f | 4s 3p 2d 1f ]
   7  H  def2-qzvpp [ 7s 3p 2d 1f | 4s 3p 2d 1f ]
   8  H  def2-qzvpp [ 7s 3p 2d 1f | 4s 3p 2d 1f ]
   9  N  def2-qzvpp-ri-jk [ 14s 10p 6d 2f 1g | 10s 8p 4d 2f 1g ]
  10  H  def2-qzvpp [ 7s 3p 2d 1f | 4s 3p 2d 1f ]
  11  H  def2-qzvpp [ 7s 3p 2d 1f | 4s 3p 2d 1f ]
  12  H  def2-qzvpp [ 7s 3p 2d 1f | 4s 3p 2d 1f ]
 
 Basis functions:
            1             2             3             4             5             6             7             8             9            10
    0    1N1s          1N2s          1N3s          1N4s          1N5s          1N6s          1N7s          1N8s          1N9s          1N10s     
    1    1N1pz         1N1py         1N1px         1N2pz         1N2py         1N2px         1N3pz         1N3py         1N3px         1N4pz     
    2    1N4py         1N4px         1N5pz         1N5py         1N5px         1N6pz         1N6py         1N6px         1N7pz         1N7py     
    3    1N7px         1N8pz         1N8py         1N8px         1N1d-2        1N1d-1        1N1d0         1N1d+1        1N1d+2        1N2d-2    
    4    1N2d-1        1N2d0         1N2d+1        1N2d+2        1N3d-2        1N3d-1        1N3d0         1N3d+1        1N3d+2        1N4d-2    
    5    1N4d-1        1N4d0         1N4d+1        1N4d+2        1N1f-3        1N1f-2        1N1f-1        1N1f0         1N1f+1        1N1f+2    
    6    1N1f+3        1N2f-3        1N2f-2        1N2f-1        1N2f0         1N2f+1        1N2f+2        1N2f+3        1N1g-4        1N1g-3    
    7    1N1g-2        1N1g-1        1N1g0         1N1g+1        1N1g+2        1N1g+3        1N1g+4        2H1s          2H2s          2H3s      
    8    2H4s          2H1pz         2H1py         2H1px         2H2pz         2H2py         2H2px         2H3pz         2H3py         2H3px     
    9    2H1d-2        2H1d-1        2H1d0         2H1d+1        2H1d+2        2H2d-2        2H2d-1        2H2d0         2H2d+1        2H2d+2    
   10    2H1f-3        2H1f-2        2H1f-1        2H1f0         2H1f+1        2H1f+2        2H1f+3        3H1s          3H2s          3H3s      
   11    3H4s          3H1pz         3H1py         3H1px         3H2pz         3H2py         3H2px         3H3pz         3H3py         3H3px     
   12    3H1d-2        3H1d-1        3H1d0         3H1d+1        3H1d+2        3H2d-2        3H2d-1        3H2d0         3H2d+1        3H2d+2    
   13    3H1f-3        3H1f-2        3H1f-1        3H1f0         3H1f+1        3H1f+2        3H1f+3        4H1s          4H2s          4H3s      
   14    4H4s          4H1pz         4H1py         4H1px         4H2pz         4H2py         4H2px         4H3pz         4H3py         4H3px     
   15    4H1d-2        4H1d-1        4H1d0         4H1d+1        4H1d+2        4H2d-2        4H2d-1        4H2d0         4H2d+1        4H2d+2    
   16    4H1f-3        4H1f-2        4H1f-1        4H1f0         4H1f+1        4H1f+2        4H1f+3        5N1s          5N2s          5N3s      
   17    5N4s          5N5s          5N6s          5N7s          5N8s          5N9s          5N10s         5N1pz         5N1py         5N1px     
   18    5N2pz         5N2py         5N2px         5N3pz         5N3py         5N3px         5N4pz         5N4py         5N4px         5N5pz     
   19    5N5py         5N5px         5N6pz         5N6py         5N6px         5N7pz         5N7py         5N7px         5N8pz         5N8py     
   20    5N8px         5N1d-2        5N1d-1        5N1d0         5N1d+1        5N1d+2        5N2d-2        5N2d-1        5N2d0         5N2d+1    
   21    5N2d+2        5N3d-2        5N3d-1        5N3d0         5N3d+1        5N3d+2        5N4d-2        5N4d-1        5N4d0         5N4d+1    
   22    5N4d+2        5N1f-3        5N1f-2        5N1f-1        5N1f0         5N1f+1        5N1f+2        5N1f+3        5N2f-3        5N2f-2    
   23    5N2f-1        5N2f0         5N2f+1        5N2f+2        5N2f+3        5N1g-4        5N1g-3        5N1g-2        5N1g-1        5N1g0     
   24    5N1g+1        5N1g+2        5N1g+3        5N1g+4        6H1s          6H2s          6H3s          6H4s          6H1pz         6H1py     
   25    6H1px         6H2pz         6H2py         6H2px         6H3pz         6H3py         6H3px         6H1d-2        6H1d-1        6H1d0     
   26    6H1d+1        6H1d+2        6H2d-2        6H2d-1        6H2d0         6H2d+1        6H2d+2        6H1f-3        6H1f-2        6H1f-1    
   27    6H1f0         6H1f+1        6H1f+2        6H1f+3        7H1s          7H2s          7H3s          7H4s          7H1pz         7H1py     
   28    7H1px         7H2pz         7H2py         7H2px         7H3pz         7H3py         7H3px         7H1d-2        7H1d-1        7H1d0     
   29    7H1d+1        7H1d+2        7H2d-2        7H2d-1        7H2d0         7H2d+1        7H2d+2        7H1f-3        7H1f-2        7H1f-1    
   30    7H1f0         7H1f+1        7H1f+2        7H1f+3        8H1s          8H2s          8H3s          8H4s          8H1pz         8H1py     
   31    8H1px         8H2pz         8H2py         8H2px         8H3pz         8H3py         8H3px         8H1d-2        8H1d-1        8H1d0     
   32    8H1d+1        8H1d+2        8H2d-2        8H2d-1        8H2d0         8H2d+1        8H2d+2        8H1f-3        8H1f-2        8H1f-1    
   33    8H1f0         8H1f+1        8H1f+2        8H1f+3        9N1s          9N2s          9N3s          9N4s          9N5s          9N6s      
   34    9N7s          9N8s          9N9s          9N10s         9N1pz         9N1py         9N1px         9N2pz         9N2py         9N2px     
   35    9N3pz         9N3py         9N3px         9N4pz         9N4py         9N4px         9N5pz         9N5py         9N5px         9N6pz     
   36    9N6py         9N6px         9N7pz         9N7py         9N7px         9N8pz         9N8py         9N8px         9N1d-2        9N1d-1    
   37    9N1d0         9N1d+1        9N1d+2        9N2d-2        9N2d-1        9N2d0         9N2d+1        9N2d+2        9N3d-2        9N3d-1    
   38    9N3d0         9N3d+1        9N3d+2        9N4d-2        9N4d-1        9N4d0         9N4d+1        9N4d+2        9N1f-3        9N1f-2    
   39    9N1f-1        9N1f0         9N1f+1        9N1f+2        9N1f+3        9N2f-3        9N2f-2        9N2f-1        9N2f0         9N2f+1    
   40    9N2f+2        9N2f+3        9N1g-4        9N1g-3        9N1g-2        9N1g-1        9N1g0         9N1g+1        9N1g+2        9N1g+3    
   41    9N1g+4       10H1s         10H2s         10H3s         10H4s         10H1pz        10H1py        10H1px        10H2pz        10H2py     
   42   10H2px        10H3pz        10H3py        10H3px        10H1d-2       10H1d-1       10H1d0        10H1d+1       10H1d+2       10H2d-2    
   43   10H2d-1       10H2d0        10H2d+1       10H2d+2       10H1f-3       10H1f-2       10H1f-1       10H1f0        10H1f+1       10H1f+2    
   44   10H1f+3       11H1s         11H2s         11H3s         11H4s         11H1pz        11H1py        11H1px        11H2pz        11H2py     
   45   11H2px        11H3pz        11H3py        11H3px        11H1d-2       11H1d-1       11H1d0        11H1d+1       11H1d+2       11H2d-2    
   46   11H2d-1       11H2d0        11H2d+1       11H2d+2       11H1f-3       11H1f-2       11H1f-1       11H1f0        11H1f+1       11H1f+2    
   47   11H1f+3       12H1s         12H2s         12H3s         12H4s         12H1pz        12H1py        12H1px        12H2pz        12H2py     
   48   12H2px        12H3pz        12H3py        12H3px        12H1d-2       12H1d-1       12H1d0        12H1d+1       12H1d+2       12H2d-2    
   49   12H2d-1       12H2d0        12H2d+1       12H2d+2       12H1f-3       12H1f-2       12H1f-1       12H1f0        12H1f+1       12H1f+2    
   50   12H1f+3    
 
 Maximum number of basis functions per shell:   24
 Total number of basis functions:    501
 
 
 Initializing the SAD routines for the initial guess...
 Checking the files required for the initial guess...
 Atomic density files have been found for the atoms with the following serial numbers:
  
 Atomic density files have not been found for the atoms with the following serial numbers:
  1 2 3 4 5 6 7 8
 Generating SCFDENSITIES.N.def2-svp.0
 Generating SCFDENSITIES.H.def2-svp.0
 CPU time [min]:     0.213                   Wall time [min]:     0.132
 
 Character table for point group C1:
 
          E  
    A     1
 
 Number of basis functions per irrep:
    A      87
 
 
 Calculation of overlap integrals...
 CPU time [min]:     0.219                   Wall time [min]:     0.132
 
 Calculation of the square root of the overlap matrix...
 Minimum eigenvalue of the overlap matrix: 0.235399E-01
 CPU time [min]:     0.232                   Wall time [min]:     0.133
 
 Calculation of kinetic energy integrals...
 CPU time [min]:     0.233                   Wall time [min]:     0.133
 Calculation of dipole moment integrals...
 CPU time [min]:     0.234                   Wall time [min]:     0.133
 Calculation of nuclear attraction integrals...
 CPU time [min]:     0.236                   Wall time [min]:     0.133
 
 Calculation of prescreening integrals...
 CPU time [min]:     0.255                   Wall time [min]:     0.133
 
 Calculation of two-center Coulomb integrals...
   1% done.
  13% done.
  24% done.
  35% done.
  47% done.
  60% done.
  72% done.
  86% done.
  97% done.
 100% done.
 CPU time [min]:     0.266                   Wall time [min]:     0.133
 
 Cholesky decomposition of the two-center matrix...
 Reciprocal of the condition number:  0.109406E-04
 CPU time [min]:     0.296                   Wall time [min]:     0.134
 
 
 Running small-basis SCF...

 ************************ 2026-02-26 22:01:11 *************************
 Executing scf...

 @scfsetup: integrals calculated directly
            mrcc/integ direct run
 @scfsetup: calculating on full matrices
            not using symmetry adapted basis
 @scfsetup: diis switched on
 @scfsetup: number of steps to extrapolate from  10
 @scfsetup: tolerance in energy deviation    0.100000E-07
            tolerance in density deviation    0.100000E-08
 @scfsetup: maximum number of iterations: 200
 @scfsetup: restricted closed shell hf calc
 @scfsetup: starting scf from superposition of atomic densities
 @scfsetup: occupation set:
            from initial orbitals
 @scfsetup: Parameter-set for SCF acceleration: normal
 @scfsetup: diis runs from iteration:   2
 @scfsetup: diis runs to iteration: 200
 @scfsetup: diis runs in every iteration
 @scfsetup: diiswatch is disabled                   
 @scfsetup: diis dtol criteria to switch on:      0.0000E+00
           (or the iteration number below is reached)
 @scfsetup: static damping scheme
            iteration step criteria to turn damping off: 3
 @scfsetup: dynamic level shifting
            tolarance in HOMO-LUMO gap:  0.200
            tolarance in density deviation:     0.0000E+00
            iteration step criteria to turn level shifting off: 8
 Allocation of 46.0 Gbytes of memory...
 ======================================================================
 ITERATION STEP   1
 CPU time [min]:     0.041                   Wall time [min]:     0.009
 

 SCF control                  : initial
 Damping factor/level shift   : 0.000/0.200
 DIIS [start/end/frequency]   :   2 /200 /  1

 Constructing Fock-matrix...
 
 Pipek-Mezey localization...
 Step  Convergence
   1   4.015395170831
   2   1.067729556181
   3   0.061470634569
   4   0.000083081194
   5   0.000000243375
   6   0.000000006190
 CPU time [min]:     0.066                   Wall time [min]:     0.010
 
 Constructing local fitting domains...
 Maximum number of atoms in fitting domains:    5
 Average number of atoms in fitting domains:    4.5
 
 First step of Coulomb + first step of exchange...
 Exchange contribution is evaluated for MOs 1 to 10.
   1% done.
  14% done.
  25% done.
  37% done.
  49% done.
  60% done.
  72% done.
  83% done.
 100% done.
 Fitting and assembly step of exchange...
 CPU time [min]:     0.167                   Wall time [min]:     0.011
 
 Second step of Coulomb...
   1% done.
  14% done.
  25% done.
  37% done.
  49% done.
  60% done.
  72% done.
  83% done.
 100% done.
 CPU time [min]:     0.191                   Wall time [min]:     0.012
 
 Gradient norm:      2.3668E+00
 RMS of [F,P]:                                         0.03551905871712
 RMS of difference density:                            0.01290469150987
 Gap [au]:  0.66854662
 ALPHA OCC:  10
 BETA  OCC:  10
 
 ***HARTREE-FOCK ENERGY IN STEP   1 IS       -111.7190689041525360 [AU]
 ======================================================================
 ITERATION STEP   2
 CPU time [min]:     0.204                   Wall time [min]:     0.012
 

 SCF control                  : diis
 Damping factor/level shift   : 0.000/0.000
 DIIS [start/end/frequency]   :   2 /200 /  1

 Constructing Fock-matrix...
 
 Pipek-Mezey localization...
 Step  Convergence
   1   0.198691697411
   2   0.187953020918
   3   0.001831211347
   4   0.000001195149
   5   0.000000002466
 CPU time [min]:     0.227                   Wall time [min]:     0.013
 
 Constructing local fitting domains...
 Maximum number of atoms in fitting domains:    5
 Average number of atoms in fitting domains:    4.5
 
 First step of Coulomb + first step of exchange...
 Exchange contribution is evaluated for MOs 1 to 10.
   1% done.
  14% done.
  25% done.
  37% done.
  49% done.
  60% done.
  72% done.
  83% done.
 100% done.
 Fitting and assembly step of exchange...
 CPU time [min]:     0.319                   Wall time [min]:     0.014
 
 Second step of Coulomb...
   1% done.
  14% done.
  25% done.
  37% done.
  49% done.
  60% done.
  72% done.
  83% done.
 100% done.
 CPU time [min]:     0.343                   Wall time [min]:     0.014
 
 Gradient norm:      3.2094E-01
 DIIS is running in this iteration step.
 RMS of [F,P]:                                         0.00758133514886
 RMS of difference density:                            0.00609939936443
 Gap [au]:  0.49567819
 ALPHA OCC:  10
 BETA  OCC:  10
 
 ***HARTREE-FOCK ENERGY IN STEP   2 IS       -112.2467474625548647 [AU]
 
 Step comparison  Energy Drift [au]  DIIS error drift  Gradient drift
        1            5.2768E-01         2.7938E-02       2.0459E+00
        2            1.1225E+02         1.0000E-09       2.0459E+00
 ======================================================================
 ITERATION STEP   3
 CPU time [min]:     0.360                   Wall time [min]:     0.015
 

 SCF control                  : diis
 Damping factor/level shift   : 0.000/0.000
 DIIS [start/end/frequency]   :   2 /200 /  1

 Constructing Fock-matrix...
 
 Pipek-Mezey localization...
 Step  Convergence
   1   0.133324773082
   2   0.134892146024
   3   0.003410269996
   4   0.000001143460
   5   0.000000004744
 CPU time [min]:     0.383                   Wall time [min]:     0.015
 
 Constructing local fitting domains...
 Local fitting domains are unchanged.
 
 First step of Coulomb + first step of exchange...
 Exchange contribution is evaluated for MOs 1 to 10.
   1% done.
  14% done.
  25% done.
  37% done.
  49% done.
  60% done.
  72% done.
  83% done.
 100% done.
 Fitting and assembly step of exchange...
 CPU time [min]:     0.470                   Wall time [min]:     0.016
 
 Second step of Coulomb...
   1% done.
  14% done.
  25% done.
  37% done.
  49% done.
  60% done.
  72% done.
  83% done.
 100% done.
 CPU time [min]:     0.493                   Wall time [min]:     0.017
 
 Gradient norm:      1.2289E-01
 DIIS is running in this iteration step.
 RMS of [F,P]:                                         0.00365291547351
 RMS of difference density:                            0.00182262042860
 Gap [au]:  0.55547428
 ALPHA OCC:  10
 BETA  OCC:  10
 
 ***HARTREE-FOCK ENERGY IN STEP   3 IS       -112.2857553088322078 [AU]
 
 Step comparison  Energy Drift [au]  DIIS error drift  Gradient drift
        2            3.9008E-02         3.9284E-03       1.9804E-01
 ======================================================================
 ITERATION STEP   4
 CPU time [min]:     0.510                   Wall time [min]:     0.017
 

 SCF control                  : diis
 Damping factor/level shift   : 0.000/0.000
 DIIS [start/end/frequency]   :   2 /200 /  1

 Constructing Fock-matrix...
 
 Pipek-Mezey localization...
 Step  Convergence
   1   0.116036942174
   2   0.114191610747
   3   0.001385077672
   4   0.000000169009
   5   0.000000000048
 CPU time [min]:     0.533                   Wall time [min]:     0.018
 
 Constructing local fitting domains...
 Local fitting domains are unchanged.
 
 First step of Coulomb + first step of exchange...
 Exchange contribution is evaluated for MOs 1 to 10.
   1% done.
  14% done.
  25% done.
  37% done.
  49% done.
  60% done.
  72% done.
  83% done.
 100% done.
 Fitting and assembly step of exchange...
 CPU time [min]:     0.620                   Wall time [min]:     0.019
 
 Second step of Coulomb...
   1% done.
  14% done.
  25% done.
  37% done.
  49% done.
  60% done.
  72% done.
  83% done.
 100% done.
 CPU time [min]:     0.644                   Wall time [min]:     0.019
 
 Gradient norm:      2.3637E-02
 DIIS is running in this iteration step.
 RMS of [F,P]:                                         0.00045805104447
 RMS of difference density:                            0.00052222684102
 Gap [au]:  0.54851151
 ALPHA OCC:  10
 BETA  OCC:  10
 
 ***HARTREE-FOCK ENERGY IN STEP   4 IS       -112.2964983048027108 [AU]
 
 Step comparison  Energy Drift [au]  DIIS error drift  Gradient drift
        3            1.0743E-02         3.1949E-03       9.9258E-02
 ======================================================================
 ITERATION STEP   5
 CPU time [min]:     0.658                   Wall time [min]:     0.020
 

 SCF control                  : diis
 Damping factor/level shift   : 0.000/0.000
 DIIS [start/end/frequency]   :   2 /200 /  1

 Constructing Fock-matrix...
 
 Pipek-Mezey localization...
 Step  Convergence
   1   0.114763252208
   2   0.112878187248
   3   0.000379442518
   4   0.000000598677
   5   0.000000004154
 CPU time [min]:     0.682                   Wall time [min]:     0.020
 
 Constructing local fitting domains...
 Local fitting domains are unchanged.
 
 First step of Coulomb + first step of exchange...
 Exchange contribution is evaluated for MOs 1 to 10.
   1% done.
  14% done.
  25% done.
  37% done.
  49% done.
  60% done.
  72% done.
  83% done.
 100% done.
 Fitting and assembly step of exchange...
 CPU time [min]:     0.768                   Wall time [min]:     0.021
 
 Second step of Coulomb...
   1% done.
  14% done.
  25% done.
  37% done.
  49% done.
  60% done.
  72% done.
  83% done.
 100% done.
 CPU time [min]:     0.793                   Wall time [min]:     0.022
 
 Gradient norm:      2.4984E-03
 DIIS is running in this iteration step.
 RMS of [F,P]:                                         0.00008424095213
 RMS of difference density:                            0.00008981361429
 Gap [au]:  0.54849553
 ALPHA OCC:  10
 BETA  OCC:  10
 
 ***HARTREE-FOCK ENERGY IN STEP   5 IS       -112.2968632600411496 [AU]
 
 Step comparison  Energy Drift [au]  DIIS error drift  Gradient drift
        4            3.6496E-04         3.7381E-04       2.1138E-02
 ======================================================================
 ITERATION STEP   6
 CPU time [min]:     0.808                   Wall time [min]:     0.022
 

 SCF control                  : diis
 Damping factor/level shift   : 0.000/0.000
 DIIS [start/end/frequency]   :   2 /200 /  1

 Constructing Fock-matrix...
 
 Pipek-Mezey localization...
 Step  Convergence
   1   0.107103687200
   2   0.110978384285
   3   0.000315463460
   4   0.000000016904
   5   0.000000000077
 CPU time [min]:     0.832                   Wall time [min]:     0.023
 
 Constructing local fitting domains...
 Local fitting domains are unchanged.
 
 First step of Coulomb + first step of exchange...
 Exchange contribution is evaluated for MOs 1 to 10.
   1% done.
  14% done.
  25% done.
  37% done.
  49% done.
  60% done.
  72% done.
  83% done.
 100% done.
 Fitting and assembly step of exchange...
 CPU time [min]:     0.918                   Wall time [min]:     0.024
 
 Second step of Coulomb...
   1% done.
  14% done.
  25% done.
  37% done.
  49% done.
  60% done.
  72% done.
  83% done.
 100% done.
 CPU time [min]:     0.942                   Wall time [min]:     0.024
 
 Gradient norm:      5.9312E-04
 DIIS is running in this iteration step.
 RMS of [F,P]:                                         0.00001306409035
 RMS of difference density:                            0.00001625924713
 Gap [au]:  0.54875612
 ALPHA OCC:  10
 BETA  OCC:  10
 
 ***HARTREE-FOCK ENERGY IN STEP   6 IS       -112.2968733319420238 [AU]
 
 Step comparison  Energy Drift [au]  DIIS error drift  Gradient drift
        5            1.0072E-05         7.1177E-05       1.9052E-03
 ======================================================================
 ITERATION STEP   7
 CPU time [min]:     0.961                   Wall time [min]:     0.025
 

 SCF control                  : diis
 Damping factor/level shift   : 0.000/0.000
 DIIS [start/end/frequency]   :   2 /200 /  1

 Constructing Fock-matrix...
 
 Pipek-Mezey localization...
 Step  Convergence
   1   0.108730858797
   2   0.106792737912
   3   0.000064740959
   4   0.000000027619
   5   0.000000000054
   6   0.000000000000
 CPU time [min]:     0.984                   Wall time [min]:     0.025
 
 Constructing local fitting domains...
 Local fitting domains are unchanged.
 
 First step of Coulomb + first step of exchange...
 Exchange contribution is evaluated for MOs 1 to 10.
   1% done.
  14% done.
  25% done.
  37% done.
  49% done.
  60% done.
  72% done.
  83% done.
 100% done.
 Fitting and assembly step of exchange...
 CPU time [min]:     1.071                   Wall time [min]:     0.026
 
 Second step of Coulomb...
   1% done.
  14% done.
  25% done.
  37% done.
  49% done.
  60% done.
  72% done.
  83% done.
 100% done.
 CPU time [min]:     1.095                   Wall time [min]:     0.027
 
 Gradient norm:      2.1495E-04
 DIIS is running in this iteration step.
 RMS of [F,P]:                                         0.00000497276463
 RMS of difference density:                            0.00000457815172
 Gap [au]:  0.54867719
 ALPHA OCC:  10
 BETA  OCC:  10
 
 ***HARTREE-FOCK ENERGY IN STEP   7 IS       -112.2968736302447326 [AU]
 
 Step comparison  Energy Drift [au]  DIIS error drift  Gradient drift
        6            2.9830E-07         8.0913E-06       3.7818E-04
 ======================================================================
 ITERATION STEP   8
 CPU time [min]:     1.109                   Wall time [min]:     0.027
 

 SCF control                  : diis
 Damping factor/level shift   : 0.000/0.000
 DIIS [start/end/frequency]   :   2 /200 /  1

 Constructing Fock-matrix...
 
 Pipek-Mezey localization...
 Step  Convergence
   1   0.111347780444
   2   0.106824488291
   3   0.000057227145
   4   0.000000020377
   5   0.000000000071
   6   0.000000000000
 CPU time [min]:     1.133                   Wall time [min]:     0.028
 
 Constructing local fitting domains...
 Local fitting domains are unchanged.
 
 First step of Coulomb + first step of exchange...
 Exchange contribution is evaluated for MOs 1 to 10.
   1% done.
  14% done.
  25% done.
  37% done.
  49% done.
  60% done.
  72% done.
  83% done.
 100% done.
 Fitting and assembly step of exchange...
 CPU time [min]:     1.220                   Wall time [min]:     0.029
 
 Second step of Coulomb...
   1% done.
  14% done.
  25% done.
  37% done.
  49% done.
  60% done.
  72% done.
  83% done.
 100% done.
 CPU time [min]:     1.244                   Wall time [min]:     0.029
 
 Gradient norm:      6.8904E-05
 DIIS is running in this iteration step.
 RMS of [F,P]:                                         0.00000138855139
 RMS of difference density:                            0.00000240255040
 Gap [au]:  0.54868301
 ALPHA OCC:  10
 BETA  OCC:  10
 
 ***HARTREE-FOCK ENERGY IN STEP   8 IS       -112.2968736662364648 [AU]
 
 Step comparison  Energy Drift [au]  DIIS error drift  Gradient drift
        7            3.5992E-08         3.5842E-06       1.4604E-04
 ======================================================================
 ITERATION STEP   9
 CPU time [min]:     1.258                   Wall time [min]:     0.030
 

 SCF control                  : diis
 Damping factor/level shift   : 0.000/0.000
 DIIS [start/end/frequency]   :   2 /200 /  1

 Constructing Fock-matrix...
 
 Pipek-Mezey localization...
 Step  Convergence
   1   0.110848035980
   2   0.106332256960
   3   0.000036978152
   4   0.000000017115
   5   0.000000000043
   6   0.000000000000
 CPU time [min]:     1.282                   Wall time [min]:     0.030
 
 Constructing local fitting domains...
 Local fitting domains are unchanged.
 
 First step of Coulomb + first step of exchange...
 Exchange contribution is evaluated for MOs 1 to 10.
   1% done.
  14% done.
  25% done.
  37% done.
  49% done.
  60% done.
  72% done.
  83% done.
 100% done.
 Fitting and assembly step of exchange...
 CPU time [min]:     1.369                   Wall time [min]:     0.031
 
 Second step of Coulomb...
   1% done.
  14% done.
  25% done.
  37% done.
  49% done.
  60% done.
  72% done.
  83% done.
 100% done.
 CPU time [min]:     1.393                   Wall time [min]:     0.032
 
 Gradient norm:      7.9015E-06
 DIIS is running in this iteration step.
 RMS of [F,P]:                                         0.00000016845887
 RMS of difference density:                            0.00000033334619
 Gap [au]:  0.54868123
 ALPHA OCC:  10
 BETA  OCC:  10
 
 ***HARTREE-FOCK ENERGY IN STEP   9 IS       -112.2968736707851036 [AU]
 
 Step comparison  Energy Drift [au]  DIIS error drift  Gradient drift
        8            4.5486E-09         1.2201E-06       6.1002E-05
 ======================================================================
 ITERATION STEP  10
 CPU time [min]:     1.411                   Wall time [min]:     0.032
 

 SCF control                  : diis
 Damping factor/level shift   : 0.000/0.000
 DIIS [start/end/frequency]   :   2 /200 /  1

 Constructing Fock-matrix...
 
 Pipek-Mezey localization...
 Step  Convergence
   1   0.108137478771
   2   0.106546909998
   3   0.000066512780
   4   0.000000023404
   5   0.000000000078
   6   0.000000000001
 CPU time [min]:     1.434                   Wall time [min]:     0.033
 
 Constructing local fitting domains...
 Local fitting domains are unchanged.
 
 First step of Coulomb + first step of exchange...
 Exchange contribution is evaluated for MOs 1 to 10.
   1% done.
  14% done.
  25% done.
  37% done.
  49% done.
  60% done.
  72% done.
  83% done.
 100% done.
 Fitting and assembly step of exchange...
 CPU time [min]:     1.521                   Wall time [min]:     0.034
 
 Second step of Coulomb...
   1% done.
  14% done.
  25% done.
  37% done.
  49% done.
  60% done.
  72% done.
  83% done.
 100% done.
 CPU time [min]:     1.545                   Wall time [min]:     0.034
 
 Gradient norm:      1.8993E-06
 DIIS is running in this iteration step.
 RMS of [F,P]:                                         0.00000003986855
 RMS of difference density:                            0.00000011729011
 Gap [au]:  0.54868113
 ALPHA OCC:  10
 BETA  OCC:  10
 
 ***HARTREE-FOCK ENERGY IN STEP  10 IS       -112.2968736708783126 [AU]
 
 Step comparison  Energy Drift [au]  DIIS error drift  Gradient drift
        9            9.3209E-11         1.2859E-07       6.0022E-06
 ======================================================================
 ITERATION STEP  11
 CPU time [min]:     1.561                   Wall time [min]:     0.035
 

 SCF control                  : diis
 Damping factor/level shift   : 0.000/0.000
 DIIS [start/end/frequency]   :   2 /200 /  1

 Constructing Fock-matrix...
 
 Pipek-Mezey localization...
 Step  Convergence
   1   0.106710991351
   2   0.109883716169
   3   0.000052960705
   4   0.000000035308
   5   0.000000000243
   6   0.000000000002
   7   0.000000000000
 CPU time [min]:     1.584                   Wall time [min]:     0.035
 
 Constructing local fitting domains...
 Local fitting domains are unchanged.
 
 First step of Coulomb + first step of exchange...
 Exchange contribution is evaluated for MOs 1 to 10.
   1% done.
  14% done.
  25% done.
  37% done.
  49% done.
  60% done.
  72% done.
  83% done.
 100% done.
 Fitting and assembly step of exchange...
 CPU time [min]:     1.671                   Wall time [min]:     0.036
 
 Second step of Coulomb...
   1% done.
  14% done.
  25% done.
  37% done.
  49% done.
  60% done.
  72% done.
  83% done.
 100% done.
 CPU time [min]:     1.695                   Wall time [min]:     0.037
 
 Gradient norm:      3.8867E-07
 DIIS is running in this iteration step.
 RMS of [F,P]:                                         0.00000000906398
 RMS of difference density:                            0.00000002688913
 Gap [au]:  0.54868110
 ALPHA OCC:  10
 BETA  OCC:  10
 
 ***HARTREE-FOCK ENERGY IN STEP  11 IS       -112.2968736708898803 [AU]
 
 Step comparison  Energy Drift [au]  DIIS error drift  Gradient drift
       10            1.1568E-11         3.0805E-08       1.5106E-06
 ======================================================================
 ITERATION STEP  12
 CPU time [min]:     1.712                   Wall time [min]:     0.037
 

 SCF control                  : diis
 Damping factor/level shift   : 0.000/0.000
 DIIS [start/end/frequency]   :   2 /200 /  1

 Constructing Fock-matrix...
 
 Pipek-Mezey localization...
 Step  Convergence
   1   0.108020222821
   2   0.107966481713
   3   0.000100554427
   4   0.000000028269
   5   0.000000000080
   6   0.000000000001
 CPU time [min]:     1.736                   Wall time [min]:     0.038
 
 Constructing local fitting domains...
 Local fitting domains are unchanged.
 
 First step of Coulomb + first step of exchange...
 Exchange contribution is evaluated for MOs 1 to 10.
   1% done.
  14% done.
  25% done.
  37% done.
  49% done.
  60% done.
  72% done.
  83% done.
 100% done.
 Fitting and assembly step of exchange...
 CPU time [min]:     1.823                   Wall time [min]:     0.039
 
 Second step of Coulomb...
   1% done.
  14% done.
  25% done.
  37% done.
  49% done.
  60% done.
  72% done.
  83% done.
 100% done.
 CPU time [min]:     1.848                   Wall time [min]:     0.039
 
 Gradient norm:      6.1045E-08
 DIIS is running in this iteration step.
 RMS of [F,P]:                                         0.00000000121554
 RMS of difference density:                            0.00000000232810
 Gap [au]:  0.54868109
 ALPHA OCC:  10
 BETA  OCC:  10
 
 ***HARTREE-FOCK ENERGY IN STEP  12 IS       -112.2968736708902924 [AU]
 
 Step comparison  Energy Drift [au]  DIIS error drift  Gradient drift
       11            4.1211E-13         7.8484E-09       3.2762E-07
 ======================================================================
 ITERATION STEP  13
 CPU time [min]:     1.864                   Wall time [min]:     0.040
 

 SCF control                  : diis
 Damping factor/level shift   : 0.000/0.000
 DIIS [start/end/frequency]   :   2 /200 /  1

 Constructing Fock-matrix...
 
 Pipek-Mezey localization...
 Step  Convergence
   1   0.111264934420
   2   0.109367170140
   3   0.000050702548
   4   0.000000016404
   5   0.000000000045
   6   0.000000000000
 CPU time [min]:     1.887                   Wall time [min]:     0.040
 
 Constructing local fitting domains...
 Local fitting domains are unchanged.
 
 First step of Coulomb + first step of exchange...
 Exchange contribution is evaluated for MOs 1 to 10.
   1% done.
  14% done.
  25% done.
  37% done.
  49% done.
  60% done.
  72% done.
  83% done.
 100% done.
 Fitting and assembly step of exchange...
 CPU time [min]:     1.974                   Wall time [min]:     0.041
 
 Second step of Coulomb...
   1% done.
  14% done.
  25% done.
  37% done.
  49% done.
  60% done.
  72% done.
  83% done.
 100% done.
 CPU time [min]:     1.998                   Wall time [min]:     0.042
 
 Gradient norm:      1.0676E-08
 DIIS is running in this iteration step.
 RMS of [F,P]:                                         0.00000000022319
 RMS of difference density:                            0.00000000026091
 Gap [au]:  0.54868109
 ALPHA OCC:  10
 BETA  OCC:  10
 
 ***HARTREE-FOCK ENERGY IN STEP  13 IS       -112.2968736708899229 [AU]
 
 Step comparison  Energy Drift [au]  DIIS error drift  Gradient drift
       12           -3.6948E-13         9.9235E-10       5.0369E-08
 Warning! The energy goes uphill (with respect to previous step).
 
 The SCF iteration has converged.
 An extra iteration will be performed to calculate accurate SCF energy.
 
 ======================================================================
 ITERATION STEP  14
 CPU time [min]:     2.015                   Wall time [min]:     0.042
 

 SCF control                  : diis
 Damping factor/level shift   : 0.000/0.000
 DIIS [start/end/frequency]   :   2 /200 /  1

 Constructing Fock-matrix...
 
 Pipek-Mezey localization...
 Step  Convergence
   1   0.107118011548
   2   0.106659137915
   3   0.000082580374
   4   0.000000030035
   5   0.000000000090
   6   0.000000000001
 CPU time [min]:     2.038                   Wall time [min]:     0.043
 
 Constructing local fitting domains...
 Maximum number of atoms in fitting domains:   12
 Average number of atoms in fitting domains:   10.2
 
 First step of Coulomb + first step of exchange...
 Exchange contribution is evaluated for MOs 1 to 10.
   1% done.
  14% done.
  25% done.
  37% done.
  49% done.
  60% done.
  72% done.
  83% done.
 100% done.
 Fitting and assembly step of exchange...
 CPU time [min]:     2.158                   Wall time [min]:     0.044
 
 Second step of Coulomb...
   1% done.
  14% done.
  25% done.
  37% done.
  49% done.
  60% done.
  72% done.
  83% done.
 100% done.
 CPU time [min]:     2.182                   Wall time [min]:     0.045
 
 Gradient norm:      4.3249E-06
 RMS of [F,P]:                                         0.00000007831578
 RMS of difference density:                            0.00000021153042
 Gap [au]:  0.54867748
 ALPHA OCC:  10
 BETA  OCC:  10
 
 ***HARTREE-FOCK ENERGY IN STEP  14 IS       -112.2968741420626628 [AU]
 
 Step comparison  Energy Drift [au]  DIIS error drift  Gradient drift
       13            4.7117E-07        -7.8093E-08      -4.3142E-06
 Warning! The DIIS error goes uphill (with respect to previous step).
 Warning! The DIIS error goes uphill (with respect to step  13 ).
 Warning! The gradient goes uphill (with respect to previous step).
 Warning! The gradient goes uphill (with respect to step  13 ).
 ======================================================================
 
 SUCCESS...
 THE SCF ITERATION HAS CONVERGED!
 
                   A   
 FINAL ALPHA OCC:  10
 FINAL BETA  OCC:  10
 
 ***FINAL HARTREE-FOCK ENERGY:       -112.2968741420626628 [AU]
 
 Orbital energies [au]:
      Irrep         Alpha          Beta
    1   A        -15.541874     -15.541874
    2   A        -15.532749     -15.532749
    3   A         -1.112778      -1.112778
    4   A         -1.104753      -1.104753
    5   A         -0.616888      -0.616888
    6   A         -0.616522      -0.616522
    7   A         -0.608715      -0.608715
    8   A         -0.608524      -0.608524
    9   A         -0.418423      -0.418423
   10   A         -0.411844      -0.411844
 
   11   A          0.136834       0.136834
   12   A          0.178867       0.178867
   13   A          0.185285       0.185285
   14   A          0.252420       0.252420
   15   A          0.267559       0.267559
   16   A          0.270228       0.270228
   17   A          0.274737       0.274737
   18   A          0.289578       0.289578
   19   A          0.331574       0.331574
   20   A          0.473075       0.473075
   21   A          0.621799       0.621799
   22   A          0.722795       0.722795
   23   A          0.727792       0.727792
   24   A          0.740294       0.740294
   25   A          0.748096       0.748096
   26   A          0.765078       0.765078
   27   A          0.790228       0.790228
   28   A          0.885225       0.885225
   29   A          0.890279       0.890279
   30   A          0.998206       0.998206
   31   A          1.073800       1.073800
   32   A          1.093419       1.093419
   33   A          1.100096       1.100096
   34   A          1.101314       1.101314
   35   A          1.122502       1.122502
   36   A          1.146943       1.146943
   37   A          1.197210       1.197210
   38   A          1.457985       1.457985
   39   A          1.465906       1.465906
   40   A          1.466231       1.466231
   41   A          1.482371       1.482371
   42   A          1.597166       1.597166
   43   A          1.611531       1.611531
   44   A          1.660189       1.660189
   45   A          1.808637       1.808637
   46   A          1.865772       1.865772
   47   A          1.872865       1.872865
   48   A          1.970982       1.970982
   49   A          1.977428       1.977428
   50   A          1.985483       1.985483
   51   A          1.994771       1.994771
   52   A          2.076320       2.076320
   53   A          2.080668       2.080668
   54   A          2.081037       2.081037
   55   A          2.117100       2.117100
   56   A          2.306726       2.306726
   57   A          2.416601       2.416601
   58   A          2.420684       2.420684
   59   A          2.424700       2.424700
   60   A          2.425418       2.425418
   61   A          2.476433       2.476433
   62   A          2.489482       2.489482
   63   A          2.511898       2.511898
   64   A          2.532532       2.532532
   65   A          2.536293       2.536293
   66   A          2.752952       2.752952
   67   A          2.762744       2.762744
   68   A          3.070138       3.070138
   69   A          3.154461       3.154461
   70   A          3.159870       3.159870
   71   A          3.162121       3.162121
   72   A          3.162158       3.162158
   73   A          3.262605       3.262605
   74   A          3.265636       3.265636
   75   A          3.691226       3.691226
   76   A          3.698730       3.698730
   77   A          3.698906       3.698906
   78   A          3.714509       3.714509
   79   A          4.044429       4.044429
   80   A          4.055937       4.055937
   81   A          4.080809       4.080809
   82   A          4.178031       4.178031
   83   A          4.190468       4.190468
   84   A          4.915371       4.915371
   85   A          6.066832       6.066832
   86   A          6.078834       6.078834
   87   A         26.633734      26.633734
 
 RETURNING FROM SCF ALGORITHM
 ======================================================================

 ************************ 2026-02-26 22:01:15 *************************
 Executing integ...

 Allocation of 46.0 Gbytes of memory...
 
 
 Number of atoms:                 12
 Charge:                           0
 Number of electrons:             20
 Number of core electrons:         4
 Spin multiplicity:                1
 
                 Cartesian coordinates [bohr]      Atomic mass [AMU]  Z
   1  N     7.72105127    6.82177201   12.56860613    14.003074       7
   2  H     7.05646455    5.85409719   11.02403942     1.007825       1
   3  H     8.68882825    8.36611725   11.90418158     1.007825       1
   4  H     6.17659278    7.48627216   13.53633668     1.007825       1
   5  N    16.51706566    2.87346447    7.72099687    14.003074       7
   6  H    18.06149148    2.20896759    8.68871146     1.007825       1
   7  H    17.18163838    3.84114800    6.17641118     1.007825       1
   8  H    15.54925792    1.32911599    7.05654762     1.007825       1
   9  N    17.41629115    6.82177201   12.56860613     0.000000       0
  10  H    16.75170443    5.85409719   11.02403942     0.000000       0
  11  H    18.38406813    8.36611725   11.90418158     0.000000       0
  12  H    15.87183266    7.48627216   13.53633668     0.000000       0
 
 This molecule is an asymmetric top.
 
 Point group: C1  
 Computational point group: C1  
 
 Cartesian coordinates in standard orientation [bohr]
   1  N    -5.54710022    0.09221249   -0.09258474
   2  H    -5.08725731    1.95328989    0.20522698
   3  H    -5.01638140   -0.88993579    1.49385050
   4  H    -7.48095729   -0.00853194   -0.20861172
   5  N     5.24104149    0.34564480    0.00785376
   6  H     6.34517779   -0.75096020   -1.15042913
   7  H     6.10545111    0.39567900    1.74397180
   8  H     5.27996402    2.14992177   -0.70364220
   9  N     2.48652344   -5.33374986   -0.22487182
  10  H     2.94636636   -3.47267246    0.07293989
  11  H     3.01724227   -6.31589814    1.36156341
  12  H     0.55266637   -5.43449429   -0.34089881
 
 Nuclear repulsion energy [au]:         32.571221946411
 
 
 Basis set information:
 
 Maximum angular momentum: g
 Maximum number of contracted Gaussians:   11
 Maximum number of primitive Gaussians:    14
 Spherical harmonic GTOs are used.
 
 
 Conventional basis set:
 
   1  N  aug-cc-pvdz [ 10s 5p 2d | 4s 3p 2d ]
   2  H  aug-cc-pvdz [ 5s 2p | 3s 2p ]
   3  H  aug-cc-pvdz [ 5s 2p | 3s 2p ]
   4  H  aug-cc-pvdz [ 5s 2p | 3s 2p ]
   5  N  aug-cc-pvdz [ 10s 5p 2d | 4s 3p 2d ]
   6  H  aug-cc-pvdz [ 5s 2p | 3s 2p ]
   7  H  aug-cc-pvdz [ 5s 2p | 3s 2p ]
   8  H  aug-cc-pvdz [ 5s 2p | 3s 2p ]
   9  N  aug-cc-pvdz [ 10s 5p 2d | 4s 3p 2d ]
  10  H  aug-cc-pvdz [ 5s 2p | 3s 2p ]
  11  H  aug-cc-pvdz [ 5s 2p | 3s 2p ]
  12  H  aug-cc-pvdz [ 5s 2p | 3s 2p ]
 
 Basis functions:
            1             2             3             4             5             6             7             8             9            10
    0    1N1s          1N2s          1N3s          1N4s          1N1pz         1N1py         1N1px         1N2pz         1N2py         1N2px     
    1    1N3pz         1N3py         1N3px         1N1d-2        1N1d-1        1N1d0         1N1d+1        1N1d+2        1N2d-2        1N2d-1    
    2    1N2d0         1N2d+1        1N2d+2        2H1s          2H2s          2H3s          2H1pz         2H1py         2H1px         2H2pz     
    3    2H2py         2H2px         3H1s          3H2s          3H3s          3H1pz         3H1py         3H1px         3H2pz         3H2py     
    4    3H2px         4H1s          4H2s          4H3s          4H1pz         4H1py         4H1px         4H2pz         4H2py         4H2px     
    5    5N1s          5N2s          5N3s          5N4s          5N1pz         5N1py         5N1px         5N2pz         5N2py         5N2px     
    6    5N3pz         5N3py         5N3px         5N1d-2        5N1d-1        5N1d0         5N1d+1        5N1d+2        5N2d-2        5N2d-1    
    7    5N2d0         5N2d+1        5N2d+2        6H1s          6H2s          6H3s          6H1pz         6H1py         6H1px         6H2pz     
    8    6H2py         6H2px         7H1s          7H2s          7H3s          7H1pz         7H1py         7H1px         7H2pz         7H2py     
    9    7H2px         8H1s          8H2s          8H3s          8H1pz         8H1py         8H1px         8H2pz         8H2py         8H2px     
   10    9N1s          9N2s          9N3s          9N4s          9N1pz         9N1py         9N1px         9N2pz         9N2py         9N2px     
   11    9N3pz         9N3py         9N3px         9N1d-2        9N1d-1        9N1d0         9N1d+1        9N1d+2        9N2d-2        9N2d-1    
   12    9N2d0         9N2d+1        9N2d+2       10H1s         10H2s         10H3s         10H1pz        10H1py        10H1px        10H2pz     
   13   10H2py        10H2px        11H1s         11H2s         11H3s         11H1pz        11H1py        11H1px        11H2pz        11H2py     
   14   11H2px        12H1s         12H2s         12H3s         12H1pz        12H1py        12H1px        12H2pz        12H2py        12H2px     
 
 Maximum number of basis functions per shell:   10
 Total number of basis functions:    150
 
 
 Fitting basis set for the SCF calculation:
 
   1  N  aug-cc-pvdz-ri-jk [ 11s 8p 6d 3f | 11s 8p 6d 3f ]
   2  H  aug-cc-pvdz-ri-jk [ 5s 4p 3d | 5s 4p 3d ]
   3  H  aug-cc-pvdz-ri-jk [ 5s 4p 3d | 5s 4p 3d ]
   4  H  aug-cc-pvdz-ri-jk [ 5s 4p 3d | 5s 4p 3d ]
   5  N  aug-cc-pvdz-ri-jk [ 11s 8p 6d 3f | 11s 8p 6d 3f ]
   6  H  aug-cc-pvdz-ri-jk [ 5s 4p 3d | 5s 4p 3d ]
   7  H  aug-cc-pvdz-ri-jk [ 5s 4p 3d | 5s 4p 3d ]
   8  H  aug-cc-pvdz-ri-jk [ 5s 4p 3d | 5s 4p 3d ]
   9  N  aug-cc-pvdz-ri-jk [ 11s 8p 6d 3f | 11s 8p 6d 3f ]
  10  H  aug-cc-pvdz-ri-jk [ 5s 4p 3d | 5s 4p 3d ]
  11  H  aug-cc-pvdz-ri-jk [ 5s 4p 3d | 5s 4p 3d ]
  12  H  aug-cc-pvdz-ri-jk [ 5s 4p 3d | 5s 4p 3d ]
 
 Basis functions:
            1             2             3             4             5             6             7             8             9            10
    0    1N1s          1N2s          1N3s          1N4s          1N5s          1N6s          1N7s          1N8s          1N9s          1N10s     
    1    1N11s         1N1pz         1N1py         1N1px         1N2pz         1N2py         1N2px         1N3pz         1N3py         1N3px     
    2    1N4pz         1N4py         1N4px         1N5pz         1N5py         1N5px         1N6pz         1N6py         1N6px         1N7pz     
    3    1N7py         1N7px         1N8pz         1N8py         1N8px         1N1d-2        1N1d-1        1N1d0         1N1d+1        1N1d+2    
    4    1N2d-2        1N2d-1        1N2d0         1N2d+1        1N2d+2        1N3d-2        1N3d-1        1N3d0         1N3d+1        1N3d+2    
    5    1N4d-2        1N4d-1        1N4d0         1N4d+1        1N4d+2        1N5d-2        1N5d-1        1N5d0         1N5d+1        1N5d+2    
    6    1N6d-2        1N6d-1        1N6d0         1N6d+1        1N6d+2        1N1f-3        1N1f-2        1N1f-1        1N1f0         1N1f+1    
    7    1N1f+2        1N1f+3        1N2f-3        1N2f-2        1N2f-1        1N2f0         1N2f+1        1N2f+2        1N2f+3        1N3f-3    
    8    1N3f-2        1N3f-1        1N3f0         1N3f+1        1N3f+2        1N3f+3        2H1s          2H2s          2H3s          2H4s      
    9    2H5s          2H1pz         2H1py         2H1px         2H2pz         2H2py         2H2px         2H3pz         2H3py         2H3px     
   10    2H4pz         2H4py         2H4px         2H1d-2        2H1d-1        2H1d0         2H1d+1        2H1d+2        2H2d-2        2H2d-1    
   11    2H2d0         2H2d+1        2H2d+2        2H3d-2        2H3d-1        2H3d0         2H3d+1        2H3d+2        3H1s          3H2s      
   12    3H3s          3H4s          3H5s          3H1pz         3H1py         3H1px         3H2pz         3H2py         3H2px         3H3pz     
   13    3H3py         3H3px         3H4pz         3H4py         3H4px         3H1d-2        3H1d-1        3H1d0         3H1d+1        3H1d+2    
   14    3H2d-2        3H2d-1        3H2d0         3H2d+1        3H2d+2        3H3d-2        3H3d-1        3H3d0         3H3d+1        3H3d+2    
   15    4H1s          4H2s          4H3s          4H4s          4H5s          4H1pz         4H1py         4H1px         4H2pz         4H2py     
   16    4H2px         4H3pz         4H3py         4H3px         4H4pz         4H4py         4H4px         4H1d-2        4H1d-1        4H1d0     
   17    4H1d+1        4H1d+2        4H2d-2        4H2d-1        4H2d0         4H2d+1        4H2d+2        4H3d-2        4H3d-1        4H3d0     
   18    4H3d+1        4H3d+2        5N1s          5N2s          5N3s          5N4s          5N5s          5N6s          5N7s          5N8s      
   19    5N9s          5N10s         5N11s         5N1pz         5N1py         5N1px         5N2pz         5N2py         5N2px         5N3pz     
   20    5N3py         5N3px         5N4pz         5N4py         5N4px         5N5pz         5N5py         5N5px         5N6pz         5N6py     
   21    5N6px         5N7pz         5N7py         5N7px         5N8pz         5N8py         5N8px         5N1d-2        5N1d-1        5N1d0     
   22    5N1d+1        5N1d+2        5N2d-2        5N2d-1        5N2d0         5N2d+1        5N2d+2        5N3d-2        5N3d-1        5N3d0     
   23    5N3d+1        5N3d+2        5N4d-2        5N4d-1        5N4d0         5N4d+1        5N4d+2        5N5d-2        5N5d-1        5N5d0     
   24    5N5d+1        5N5d+2        5N6d-2        5N6d-1        5N6d0         5N6d+1        5N6d+2        5N1f-3        5N1f-2        5N1f-1    
   25    5N1f0         5N1f+1        5N1f+2        5N1f+3        5N2f-3        5N2f-2        5N2f-1        5N2f0         5N2f+1        5N2f+2    
   26    5N2f+3        5N3f-3        5N3f-2        5N3f-1        5N3f0         5N3f+1        5N3f+2        5N3f+3        6H1s          6H2s      
   27    6H3s          6H4s          6H5s          6H1pz         6H1py         6H1px         6H2pz         6H2py         6H2px         6H3pz     
   28    6H3py         6H3px         6H4pz         6H4py         6H4px         6H1d-2        6H1d-1        6H1d0         6H1d+1        6H1d+2    
   29    6H2d-2        6H2d-1        6H2d0         6H2d+1        6H2d+2        6H3d-2        6H3d-1        6H3d0         6H3d+1        6H3d+2    
   30    7H1s          7H2s          7H3s          7H4s          7H5s          7H1pz         7H1py         7H1px         7H2pz         7H2py     
   31    7H2px         7H3pz         7H3py         7H3px         7H4pz         7H4py         7H4px         7H1d-2        7H1d-1        7H1d0     
   32    7H1d+1        7H1d+2        7H2d-2        7H2d-1        7H2d0         7H2d+1        7H2d+2        7H3d-2        7H3d-1        7H3d0     
   33    7H3d+1        7H3d+2        8H1s          8H2s          8H3s          8H4s          8H5s          8H1pz         8H1py         8H1px     
   34    8H2pz         8H2py         8H2px         8H3pz         8H3py         8H3px         8H4pz         8H4py         8H4px         8H1d-2    
   35    8H1d-1        8H1d0         8H1d+1        8H1d+2        8H2d-2        8H2d-1        8H2d0         8H2d+1        8H2d+2        8H3d-2    
   36    8H3d-1        8H3d0         8H3d+1        8H3d+2        9N1s          9N2s          9N3s          9N4s          9N5s          9N6s      
   37    9N7s          9N8s          9N9s          9N10s         9N11s         9N1pz         9N1py         9N1px         9N2pz         9N2py     
   38    9N2px         9N3pz         9N3py         9N3px         9N4pz         9N4py         9N4px         9N5pz         9N5py         9N5px     
   39    9N6pz         9N6py         9N6px         9N7pz         9N7py         9N7px         9N8pz         9N8py         9N8px         9N1d-2    
   40    9N1d-1        9N1d0         9N1d+1        9N1d+2        9N2d-2        9N2d-1        9N2d0         9N2d+1        9N2d+2        9N3d-2    
   41    9N3d-1        9N3d0         9N3d+1        9N3d+2        9N4d-2        9N4d-1        9N4d0         9N4d+1        9N4d+2        9N5d-2    
   42    9N5d-1        9N5d0         9N5d+1        9N5d+2        9N6d-2        9N6d-1        9N6d0         9N6d+1        9N6d+2        9N1f-3    
   43    9N1f-2        9N1f-1        9N1f0         9N1f+1        9N1f+2        9N1f+3        9N2f-3        9N2f-2        9N2f-1        9N2f0     
   44    9N2f+1        9N2f+2        9N2f+3        9N3f-3        9N3f-2        9N3f-1        9N3f0         9N3f+1        9N3f+2        9N3f+3    
   45   10H1s         10H2s         10H3s         10H4s         10H5s         10H1pz        10H1py        10H1px        10H2pz        10H2py     
   46   10H2px        10H3pz        10H3py        10H3px        10H4pz        10H4py        10H4px        10H1d-2       10H1d-1       10H1d0     
   47   10H1d+1       10H1d+2       10H2d-2       10H2d-1       10H2d0        10H2d+1       10H2d+2       10H3d-2       10H3d-1       10H3d0     
   48   10H3d+1       10H3d+2       11H1s         11H2s         11H3s         11H4s         11H5s         11H1pz        11H1py        11H1px     
   49   11H2pz        11H2py        11H2px        11H3pz        11H3py        11H3px        11H4pz        11H4py        11H4px        11H1d-2    
   50   11H1d-1       11H1d0        11H1d+1       11H1d+2       11H2d-2       11H2d-1       11H2d0        11H2d+1       11H2d+2       11H3d-2    
   51   11H3d-1       11H3d0        11H3d+1       11H3d+2       12H1s         12H2s         12H3s         12H4s         12H5s         12H1pz     
   52   12H1py        12H1px        12H2pz        12H2py        12H2px        12H3pz        12H3py        12H3px        12H4pz        12H4py     
   53   12H4px        12H1d-2       12H1d-1       12H1d0        12H1d+1       12H1d+2       12H2d-2       12H2d-1       12H2d0        12H2d+1    
   54   12H2d+2       12H3d-2       12H3d-1       12H3d0        12H3d+1       12H3d+2    
 
 Maximum number of basis functions per shell:   30
 Total number of basis functions:    546
 
 
 Fitting basis set for the correlation calculation:
 
   1  N  aug-cc-pvdz-ri [ 8s 6p 5d 3f | 8s 6p 5d 3f ]
   2  H  aug-cc-pvdz-ri [ 4s 3p 2d | 4s 3p 2d ]
   3  H  aug-cc-pvdz-ri [ 4s 3p 2d | 4s 3p 2d ]
   4  H  aug-cc-pvdz-ri [ 4s 3p 2d | 4s 3p 2d ]
   5  N  aug-cc-pvdz-ri [ 8s 6p 5d 3f | 8s 6p 5d 3f ]
   6  H  aug-cc-pvdz-ri [ 4s 3p 2d | 4s 3p 2d ]
   7  H  aug-cc-pvdz-ri [ 4s 3p 2d | 4s 3p 2d ]
   8  H  aug-cc-pvdz-ri [ 4s 3p 2d | 4s 3p 2d ]
   9  N  aug-cc-pvdz-ri [ 8s 6p 5d 3f | 8s 6p 5d 3f ]
  10  H  aug-cc-pvdz-ri [ 4s 3p 2d | 4s 3p 2d ]
  11  H  aug-cc-pvdz-ri [ 4s 3p 2d | 4s 3p 2d ]
  12  H  aug-cc-pvdz-ri [ 4s 3p 2d | 4s 3p 2d ]
 
 Basis functions:
            1             2             3             4             5             6             7             8             9            10
    0    1N1s          1N2s          1N3s          1N4s          1N5s          1N6s          1N7s          1N8s          1N1pz         1N1py     
    1    1N1px         1N2pz         1N2py         1N2px         1N3pz         1N3py         1N3px         1N4pz         1N4py         1N4px     
    2    1N5pz         1N5py         1N5px         1N6pz         1N6py         1N6px         1N1d-2        1N1d-1        1N1d0         1N1d+1    
    3    1N1d+2        1N2d-2        1N2d-1        1N2d0         1N2d+1        1N2d+2        1N3d-2        1N3d-1        1N3d0         1N3d+1    
    4    1N3d+2        1N4d-2        1N4d-1        1N4d0         1N4d+1        1N4d+2        1N5d-2        1N5d-1        1N5d0         1N5d+1    
    5    1N5d+2        1N1f-3        1N1f-2        1N1f-1        1N1f0         1N1f+1        1N1f+2        1N1f+3        1N2f-3        1N2f-2    
    6    1N2f-1        1N2f0         1N2f+1        1N2f+2        1N2f+3        1N3f-3        1N3f-2        1N3f-1        1N3f0         1N3f+1    
    7    1N3f+2        1N3f+3        2H1s          2H2s          2H3s          2H4s          2H1pz         2H1py         2H1px         2H2pz     
    8    2H2py         2H2px         2H3pz         2H3py         2H3px         2H1d-2        2H1d-1        2H1d0         2H1d+1        2H1d+2    
    9    2H2d-2        2H2d-1        2H2d0         2H2d+1        2H2d+2        3H1s          3H2s          3H3s          3H4s          3H1pz     
   10    3H1py         3H1px         3H2pz         3H2py         3H2px         3H3pz         3H3py         3H3px         3H1d-2        3H1d-1    
   11    3H1d0         3H1d+1        3H1d+2        3H2d-2        3H2d-1        3H2d0         3H2d+1        3H2d+2        4H1s          4H2s      
   12    4H3s          4H4s          4H1pz         4H1py         4H1px         4H2pz         4H2py         4H2px         4H3pz         4H3py     
   13    4H3px         4H1d-2        4H1d-1        4H1d0         4H1d+1        4H1d+2        4H2d-2        4H2d-1        4H2d0         4H2d+1    
   14    4H2d+2        5N1s          5N2s          5N3s          5N4s          5N5s          5N6s          5N7s          5N8s          5N1pz     
   15    5N1py         5N1px         5N2pz         5N2py         5N2px         5N3pz         5N3py         5N3px         5N4pz         5N4py     
   16    5N4px         5N5pz         5N5py         5N5px         5N6pz         5N6py         5N6px         5N1d-2        5N1d-1        5N1d0     
   17    5N1d+1        5N1d+2        5N2d-2        5N2d-1        5N2d0         5N2d+1        5N2d+2        5N3d-2        5N3d-1        5N3d0     
   18    5N3d+1        5N3d+2        5N4d-2        5N4d-1        5N4d0         5N4d+1        5N4d+2        5N5d-2        5N5d-1        5N5d0     
   19    5N5d+1        5N5d+2        5N1f-3        5N1f-2        5N1f-1        5N1f0         5N1f+1        5N1f+2        5N1f+3        5N2f-3    
   20    5N2f-2        5N2f-1        5N2f0         5N2f+1        5N2f+2        5N2f+3        5N3f-3        5N3f-2        5N3f-1        5N3f0     
   21    5N3f+1        5N3f+2        5N3f+3        6H1s          6H2s          6H3s          6H4s          6H1pz         6H1py         6H1px     
   22    6H2pz         6H2py         6H2px         6H3pz         6H3py         6H3px         6H1d-2        6H1d-1        6H1d0         6H1d+1    
   23    6H1d+2        6H2d-2        6H2d-1        6H2d0         6H2d+1        6H2d+2        7H1s          7H2s          7H3s          7H4s      
   24    7H1pz         7H1py         7H1px         7H2pz         7H2py         7H2px         7H3pz         7H3py         7H3px         7H1d-2    
   25    7H1d-1        7H1d0         7H1d+1        7H1d+2        7H2d-2        7H2d-1        7H2d0         7H2d+1        7H2d+2        8H1s      
   26    8H2s          8H3s          8H4s          8H1pz         8H1py         8H1px         8H2pz         8H2py         8H2px         8H3pz     
   27    8H3py         8H3px         8H1d-2        8H1d-1        8H1d0         8H1d+1        8H1d+2        8H2d-2        8H2d-1        8H2d0     
   28    8H2d+1        8H2d+2        9N1s          9N2s          9N3s          9N4s          9N5s          9N6s          9N7s          9N8s      
   29    9N1pz         9N1py         9N1px         9N2pz         9N2py         9N2px         9N3pz         9N3py         9N3px         9N4pz     
   30    9N4py         9N4px         9N5pz         9N5py         9N5px         9N6pz         9N6py         9N6px         9N1d-2        9N1d-1    
   31    9N1d0         9N1d+1        9N1d+2        9N2d-2        9N2d-1        9N2d0         9N2d+1        9N2d+2        9N3d-2        9N3d-1    
   32    9N3d0         9N3d+1        9N3d+2        9N4d-2        9N4d-1        9N4d0         9N4d+1        9N4d+2        9N5d-2        9N5d-1    
   33    9N5d0         9N5d+1        9N5d+2        9N1f-3        9N1f-2        9N1f-1        9N1f0         9N1f+1        9N1f+2        9N1f+3    
   34    9N2f-3        9N2f-2        9N2f-1        9N2f0         9N2f+1        9N2f+2        9N2f+3        9N3f-3        9N3f-2        9N3f-1    
   35    9N3f0         9N3f+1        9N3f+2        9N3f+3       10H1s         10H2s         10H3s         10H4s         10H1pz        10H1py     
   36   10H1px        10H2pz        10H2py        10H2px        10H3pz        10H3py        10H3px        10H1d-2       10H1d-1       10H1d0     
   37   10H1d+1       10H1d+2       10H2d-2       10H2d-1       10H2d0        10H2d+1       10H2d+2       11H1s         11H2s         11H3s      
   38   11H4s         11H1pz        11H1py        11H1px        11H2pz        11H2py        11H2px        11H3pz        11H3py        11H3px     
   39   11H1d-2       11H1d-1       11H1d0        11H1d+1       11H1d+2       11H2d-2       11H2d-1       11H2d0        11H2d+1       11H2d+2    
   40   12H1s         12H2s         12H3s         12H4s         12H1pz        12H1py        12H1px        12H2pz        12H2py        12H2px     
   41   12H3pz        12H3py        12H3px        12H1d-2       12H1d-1       12H1d0        12H1d+1       12H1d+2       12H2d-2       12H2d-1    
   42   12H2d0        12H2d+1       12H2d+2    
 
 Maximum number of basis functions per shell:   30
 Total number of basis functions:    423
 
 
 Old basis set for SCF restart
 
   1  N  def2-svp [ 7s 4p 1d | 3s 2p 1d ]
   2  H  def2-svp [ 4s 1p | 2s 1p ]
   3  H  def2-svp [ 4s 1p | 2s 1p ]
   4  H  def2-svp [ 4s 1p | 2s 1p ]
   5  N  def2-svp [ 7s 4p 1d | 3s 2p 1d ]
   6  H  def2-svp [ 4s 1p | 2s 1p ]
   7  H  def2-svp [ 4s 1p | 2s 1p ]
   8  H  def2-svp [ 4s 1p | 2s 1p ]
   9  N  def2-svp [ 7s 4p 1d | 3s 2p 1d ]
  10  H  def2-svp [ 4s 1p | 2s 1p ]
  11  H  def2-svp [ 4s 1p | 2s 1p ]
  12  H  def2-svp [ 4s 1p | 2s 1p ]
 
 Basis functions:
            1             2             3             4             5             6             7             8             9            10
    0    1N1s          1N2s          1N3s          1N1pz         1N1py         1N1px         1N2pz         1N2py         1N2px         1N1d-2    
    1    1N1d-1        1N1d0         1N1d+1        1N1d+2        2H1s          2H2s          2H1pz         2H1py         2H1px         3H1s      
    2    3H2s          3H1pz         3H1py         3H1px         4H1s          4H2s          4H1pz         4H1py         4H1px         5N1s      
    3    5N2s          5N3s          5N1pz         5N1py         5N1px         5N2pz         5N2py         5N2px         5N1d-2        5N1d-1    
    4    5N1d0         5N1d+1        5N1d+2        6H1s          6H2s          6H1pz         6H1py         6H1px         7H1s          7H2s      
    5    7H1pz         7H1py         7H1px         8H1s          8H2s          8H1pz         8H1py         8H1px         9N1s          9N2s      
    6    9N3s          9N1pz         9N1py         9N1px         9N2pz         9N2py         9N2px         9N1d-2        9N1d-1        9N1d0     
    7    9N1d+1        9N1d+2       10H1s         10H2s         10H1pz        10H1py        10H1px        11H1s         11H2s         11H1pz     
    8   11H1py        11H1px        12H1s         12H2s         12H1pz        12H1py        12H1px     
 
 Maximum number of basis functions per shell:   30
 Total number of basis functions:     87
 
 
 Character table for point group C1:
 
          E  
    A     1
 
 Number of basis functions per irrep:
    A     150
 
 
 Calculation of overlap integrals...
 CPU time [min]:     0.181                   Wall time [min]:     0.005
 
 Calculation of the square root of the overlap matrix...
 Minimum eigenvalue of the overlap matrix: 0.122018E-02
 CPU time [min]:     0.204                   Wall time [min]:     0.006
 
 Calculation of kinetic energy integrals...
 CPU time [min]:     0.205                   Wall time [min]:     0.006
 Calculation of dipole moment integrals...
 CPU time [min]:     0.207                   Wall time [min]:     0.006
 Calculation of nuclear attraction integrals...
 CPU time [min]:     0.208                   Wall time [min]:     0.006
 Calculation of overlap integrals...
 CPU time [min]:     0.210                   Wall time [min]:     0.006
 
 Calculation of prescreening integrals...
 CPU time [min]:     0.277                   Wall time [min]:     0.007
 
 Calculation of two-center Coulomb integrals...
   1% done.
  13% done.
  24% done.
  37% done.
  53% done.
  68% done.
  80% done.
  95% done.
 100% done.
 CPU time [min]:     0.289                   Wall time [min]:     0.007
 
 Cholesky decomposition of the two-center matrix...
 Reciprocal of the condition number:  0.249627E-04
 CPU time [min]:     0.305                   Wall time [min]:     0.007
 

 ************************ 2026-02-26 22:01:15 *************************
 Executing scf...

 @scfsetup: integrals calculated directly
            mrcc/integ direct run
 @scfsetup: calculating on full matrices
            not using symmetry adapted basis
 @scfsetup: diis switched on
 @scfsetup: number of steps to extrapolate from  10
 @scfsetup: tolerance in energy deviation    0.100000E-07
            tolerance in density deviation    0.100000E-08
 @scfsetup: maximum number of iterations: 200
 @scfsetup: restricted closed shell hf calc
 @scfsetup: restarting scf from SCFDENSITIES file
 @scfsetup: occupation set:
            from initial orbitals
 @scfsetup: Parameter-set for SCF acceleration: normal
 @scfsetup: diis runs from iteration:   2
 @scfsetup: diis runs to iteration: 200
 @scfsetup: diis runs in every iteration
 @scfsetup: diiswatch is disabled                   
 @scfsetup: diis dtol criteria to switch on:      0.0000E+00
           (or the iteration number below is reached)
 @scfsetup: static damping scheme
            iteration step criteria to turn damping off: 3
 @scfsetup: dynamic level shifting
            tolarance in HOMO-LUMO gap:  0.200
            tolarance in density deviation:     0.0000E+00
            iteration step criteria to turn level shifting off: 8
 Allocation of 46.0 Gbytes of memory...
 ======================================================================
 ITERATION STEP   1
 CPU time [min]:     0.036                   Wall time [min]:     0.009
 

 SCF control                  : initial
 Damping factor/level shift   : 0.000/0.200
 DIIS [start/end/frequency]   :   2 /200 /  1

 Constructing Fock-matrix...
 Inverse square root: The matrix is not positive definite!
 
 Pipek-Mezey localization...
 Step  Convergence
   1   2.200020027425
   2   0.366903295264
   3   0.022619200712
   4   0.002195068338
   5   0.000303538788
   6   0.000042882715
   7   0.000006121409
   8   0.000000873718
   9   0.000000124894
  10   0.000000017847
  11   0.000000002551
 CPU time [min]:     0.065                   Wall time [min]:     0.010
 
 Constructing local fitting domains...
 Maximum number of atoms in fitting domains:    9
 Average number of atoms in fitting domains:    8.7
 
 First step of Coulomb + first step of exchange...
 Exchange contribution is evaluated for MOs 1 to 10.
   1% done.
  13% done.
  24% done.
  37% done.
  48% done.
  67% done.
  78% done.
  92% done.
 100% done.
 Fitting and assembly step of exchange...
 CPU time [min]:     0.216                   Wall time [min]:     0.012
 
 Second step of Coulomb...
   1% done.
  13% done.
  24% done.
  37% done.
  48% done.
  67% done.
  78% done.
  92% done.
 100% done.
 CPU time [min]:     0.246                   Wall time [min]:     0.013
 
 Gradient norm:      1.0366E-01
 RMS of [F,P]:                                         0.00261417984606
 RMS of difference density:                            0.00692870855046
 Gap [au]:  0.44749052
 ALPHA OCC:  10
 BETA  OCC:  10
 
 ***HARTREE-FOCK ENERGY IN STEP   1 IS       -112.3868488218348318 [AU]
 ======================================================================
 ITERATION STEP   2
 CPU time [min]:     0.268                   Wall time [min]:     0.013
 

 SCF control                  : diis
 Damping factor/level shift   : 0.000/0.000
 DIIS [start/end/frequency]   :   2 /200 /  1

 Constructing Fock-matrix...
 
 Pipek-Mezey localization...
 Step  Convergence
   1   0.062816520667
   2   0.066418053439
   3   0.001911670094
   4   0.000010193687
   5   0.000001298591
   6   0.000000173748
   7   0.000000023526
   8   0.000000003197
 CPU time [min]:     0.293                   Wall time [min]:     0.013
 
 Constructing local fitting domains...
 Maximum number of atoms in fitting domains:    9
 Average number of atoms in fitting domains:    8.7
 
 First step of Coulomb + first step of exchange...
 Exchange contribution is evaluated for MOs 1 to 10.
   1% done.
  13% done.
  24% done.
  37% done.
  48% done.
  67% done.
  78% done.
  92% done.
 100% done.
 Fitting and assembly step of exchange...
 CPU time [min]:     0.434                   Wall time [min]:     0.016
 
 Second step of Coulomb...
   1% done.
  13% done.
  24% done.
  37% done.
  48% done.
  67% done.
  78% done.
  92% done.
 100% done.
 CPU time [min]:     0.464                   Wall time [min]:     0.016
 
 Gradient norm:      2.1571E-02
 DIIS is running in this iteration step.
 RMS of [F,P]:                                         0.00046258053003
 RMS of difference density:                            0.00108236009284
 Gap [au]:  0.45222696
 ALPHA OCC:  10
 BETA  OCC:  10
 
 ***HARTREE-FOCK ENERGY IN STEP   2 IS       -112.4067883159281394 [AU]
 
 Step comparison  Energy Drift [au]  DIIS error drift  Gradient drift
        1            1.9939E-02         2.1516E-03       8.2093E-02
        2            1.1241E+02         1.0000E-09       8.2093E-02
 ======================================================================
 ITERATION STEP   3
 CPU time [min]:     0.484                   Wall time [min]:     0.016
 

 SCF control                  : diis
 Damping factor/level shift   : 0.000/0.000
 DIIS [start/end/frequency]   :   2 /200 /  1

 Constructing Fock-matrix...
 
 Pipek-Mezey localization...
 Step  Convergence
   1   0.081904221800
   2   0.084183745297
   3   0.001977065673
   4   0.000014927412
   5   0.000001449930
   6   0.000000188804
   7   0.000000025594
   8   0.000000003499
 CPU time [min]:     0.510                   Wall time [min]:     0.017
 
 Constructing local fitting domains...
 Local fitting domains are unchanged.
 
 First step of Coulomb + first step of exchange...
 Exchange contribution is evaluated for MOs 1 to 10.
   1% done.
  13% done.
  24% done.
  37% done.
  48% done.
  67% done.
  78% done.
  92% done.
 100% done.
 Fitting and assembly step of exchange...
 CPU time [min]:     0.649                   Wall time [min]:     0.019
 
 Second step of Coulomb...
   1% done.
  13% done.
  24% done.
  37% done.
  48% done.
  67% done.
  78% done.
  92% done.
 100% done.
 CPU time [min]:     0.678                   Wall time [min]:     0.019
 
 Gradient norm:      7.4358E-03
[...]
 

 Direct DF-CCSD(T) calculation
 
 Convergence criterion:  1.0E-05
 
 Number of occupied/virtual/auxiliary orbitals:     4    44   149
     12.05 MB is the minimal memory requirement for (T)
      7.50 MB is the minimal memory requirement for CCSD
 
 MP2 correlation energy [au]:       -0.200788406060
 
 LMP2 domain correlation energy contribution [au]:       -0.050033255146
 
 CPU time [min]:     3.191                   Wall time [min]:     0.057
 
 
 Starting CCSD iterations...
 
                     Residual norm       Correlation Energy
 Iteration  1        0.119291624183       -0.210266005638
 Iteration  2        0.033030000335       -0.215046926728
 Iteration  3        0.009943149402       -0.215995742491
 Iteration  4        0.002569443082       -0.215974090659
 Iteration  5        0.000724395226       -0.215989351674
 Iteration  6        0.000213424690       -0.215989545301
 Iteration  7        0.000061178839       -0.215988086064
 
 CCSD iteration has converged in  7 steps.
       22.52 MB memory was utilized by CCSD
 
 T1 diagnostic:      9.732E-03            D1 diagnostic:      2.323E-02
 
 T1 contribution [au]:                         0.000000000000
 CCSD correlation energy [au]:                -0.054022197708
 
 CPU time [min]:     3.315                   Wall time [min]:     0.059
 
 Calculation of (T) correction...
 
 Laplace threshold, nquadmin:  1.00E-03   4
 Number of quadrature points:    4
 
       12.17 MB memory is utilized for (T)

 0%       25%       50%       75%       100%
 |---------|---------|---------|---------| 
 
 (T) correction [au]:                   -0.001368302695
 CCSD(T) correlation energy [au]:       -0.055390500403
 
 CPU time [min]:     3.369                   Wall time [min]:     0.060
 
 MO:     4
 Number of atoms in domain:      12
    Number of atoms in PCD:      12
 Number of atomic orbitals:     150
 Number of atoms for local DF:   12
 Number of fitting functions:   423 (100.00%)
 Number of occupied orbitals:     8
 Number of virtual  orbitals:   140
 Number of Cholesky vectors:      9
 MP2 energy in ED [au]:          -0.049949127131
 Number of occupied LNOs:         5  (62.50%)
 Number of virtual  LNOs:        42  (30.00%)
 Number of Cholesky vectors:      8
 MP2 energy in LIS [au]:         -0.049944165291
 Correction for frozen LNO [au]: -0.000004961840     (0.010%)
 Number of NAFs:                138  (32.62%)
 CPU time [min]:     4.047                   Wall time [min]:     0.072
 

 Direct DF-CCSD(T) calculation
 
 Convergence criterion:  1.0E-05
 
 Number of occupied/virtual/auxiliary orbitals:     5    42   138
     11.63 MB is the minimal memory requirement for (T)
      7.05 MB is the minimal memory requirement for CCSD
 
 MP2 correlation energy [au]:       -0.201477122530
 
 LMP2 domain correlation energy contribution [au]:       -0.049943882886
 
 CPU time [min]:     4.098                   Wall time [min]:     0.072
 
 
 Starting CCSD iterations...
 
                     Residual norm       Correlation Energy
 Iteration  1        0.119566705267       -0.211242456397
 Iteration  2        0.033159559229       -0.216108566774
 Iteration  3        0.009900410762       -0.217048131446
 Iteration  4        0.002613542536       -0.217033759403
 Iteration  5        0.000734759232       -0.217049858121
 Iteration  6        0.000223614840       -0.217050232539
 Iteration  7        0.000064770907       -0.217048441855
 
 CCSD iteration has converged in  7 steps.
       19.57 MB memory was utilized by CCSD
 
 T1 diagnostic:      8.809E-03            D1 diagnostic:      2.358E-02
 
 T1 contribution [au]:                         0.000000000000
 CCSD correlation energy [au]:                -0.053939747721
 
 CPU time [min]:     4.242                   Wall time [min]:     0.075
 
 Calculation of (T) correction...
 
 Laplace threshold, nquadmin:  1.00E-03   4
 Number of quadrature points:    4
 
       11.83 MB memory is utilized for (T)

 0%       25%       50%       75%       100%
 |---------|---------|---------|---------| 
 
 (T) correction [au]:                   -0.001356110018
 CCSD(T) correlation energy [au]:       -0.055295857740
 
 CPU time [min]:     4.309                   Wall time [min]:     0.076
 
 MO:     5
 Number of atoms in domain:      12
    Number of atoms in PCD:      12
 Number of atomic orbitals:     150
 Number of atoms for local DF:   12
 Number of fitting functions:   423 (100.00%)
 Number of occupied orbitals:     8
 Number of virtual  orbitals:   140
 Number of Cholesky vectors:      9
 MP2 energy in ED [au]:          -0.050049849592
 Number of occupied LNOs:         4  (50.00%)
 Number of virtual  LNOs:        44  (31.43%)
 Number of Cholesky vectors:      7
 MP2 energy in LIS [au]:         -0.050043126533
 Correction for frozen LNO [au]: -0.000006723059     (0.013%)
 Number of NAFs:                149  (35.22%)
 CPU time [min]:     5.023                   Wall time [min]:     0.088
 

 Direct DF-CCSD(T) calculation
 
 Convergence criterion:  1.0E-05
 
 Number of occupied/virtual/auxiliary orbitals:     4    44   149
     12.05 MB is the minimal memory requirement for (T)
      7.50 MB is the minimal memory requirement for CCSD
 
 MP2 correlation energy [au]:       -0.200767938249
 
 LMP2 domain correlation energy contribution [au]:       -0.050042617340
 
 CPU time [min]:     5.074                   Wall time [min]:     0.089
 
 
 Starting CCSD iterations...
 
                     Residual norm       Correlation Energy
 Iteration  1        0.119283093700       -0.210246746825
 Iteration  2        0.033019542584       -0.215033102227
 Iteration  3        0.009907367329       -0.215974610546
 Iteration  4        0.002547688960       -0.215952762182
 Iteration  5        0.000708308295       -0.215969162654
 Iteration  6        0.000205602815       -0.215968771056
 Iteration  7        0.000056267298       -0.215967588397
 
 CCSD iteration has converged in  7 steps.
       22.52 MB memory was utilized by CCSD
 
 T1 diagnostic:      9.684E-03            D1 diagnostic:      2.308E-02
 
 T1 contribution [au]:                         0.000000000000
 CCSD correlation energy [au]:                -0.054032857014
 
 CPU time [min]:     5.199                   Wall time [min]:     0.091
 
 Calculation of (T) correction...
 
 Laplace threshold, nquadmin:  1.00E-03   4
 Number of quadrature points:    4
 
       12.17 MB memory is utilized for (T)

 0%       25%       50%       75%       100%
 |---------|---------|---------|---------| 
 
 (T) correction [au]:                   -0.001367985852
 CCSD(T) correlation energy [au]:       -0.055400842866
 
 CPU time [min]:     5.253                   Wall time [min]:     0.092
 
 MO:     6
 Number of atoms in domain:      12
    Number of atoms in PCD:      12
 Number of atomic orbitals:     150
 Number of atoms for local DF:   12
 Number of fitting functions:   423 (100.00%)
 Number of occupied orbitals:     8
 Number of virtual  orbitals:   140
 Number of Cholesky vectors:      9
 MP2 energy in ED [au]:          -0.049989362800
 Number of occupied LNOs:         5  (62.50%)
 Number of virtual  LNOs:        42  (30.00%)
 Number of Cholesky vectors:      8
 MP2 energy in LIS [au]:         -0.049985103549
 Correction for frozen LNO [au]: -0.000004259251     (0.009%)
 Number of NAFs:                138  (32.62%)
 CPU time [min]:     5.953                   Wall time [min]:     0.104
 

 Direct DF-CCSD(T) calculation
 
 Convergence criterion:  1.0E-05
 
 Number of occupied/virtual/auxiliary orbitals:     5    42   138
     11.63 MB is the minimal memory requirement for (T)
      7.05 MB is the minimal memory requirement for CCSD
 
 MP2 correlation energy [au]:       -0.201514392524
 
 LMP2 domain correlation energy contribution [au]:       -0.049984869088
 
 CPU time [min]:     6.004                   Wall time [min]:     0.104
 
 
 Starting CCSD iterations...
 
                     Residual norm       Correlation Energy
 Iteration  1        0.119651988354       -0.211302313196
 Iteration  2        0.033176538800       -0.216188049395
 Iteration  3        0.009851336542       -0.217116992797
 Iteration  4        0.002596403804       -0.217103761132
 Iteration  5        0.000725175952       -0.217120192662
 Iteration  6        0.000218344618       -0.217120896016
 Iteration  7        0.000063070390       -0.217119175867
 
 CCSD iteration has converged in  7 steps.
       19.57 MB memory was utilized by CCSD
 
 T1 diagnostic:      8.757E-03            D1 diagnostic:      2.340E-02
 
 T1 contribution [au]:                         0.000000000000
 CCSD correlation energy [au]:                -0.053986317614
 
 CPU time [min]:     6.143                   Wall time [min]:     0.107
 
 Calculation of (T) correction...
 
 Laplace threshold, nquadmin:  1.00E-03   4
 Number of quadrature points:    4
 
       11.83 MB memory is utilized for (T)

 0%       25%       50%       75%       100%
 |---------|---------|---------|---------| 
 
 (T) correction [au]:                   -0.001358161543
 CCSD(T) correlation energy [au]:       -0.055344479157
 
 CPU time [min]:     6.211                   Wall time [min]:     0.108
 
 MO:     7
 Number of atoms in domain:      12
    Number of atoms in PCD:      12
 Number of atomic orbitals:     150
 Number of atoms for local DF:   12
 Number of fitting functions:   423 (100.00%)
 Number of occupied orbitals:     8
 Number of virtual  orbitals:   140
 Number of Cholesky vectors:      9
 MP2 energy in ED [au]:          -0.049964128362
 Number of occupied LNOs:         5  (62.50%)
 Number of virtual  LNOs:        42  (30.00%)
 Number of Cholesky vectors:      8
 MP2 energy in LIS [au]:         -0.049958987667
 Correction for frozen LNO [au]: -0.000005140695     (0.010%)
 Number of NAFs:                138  (32.62%)
 CPU time [min]:     6.910                   Wall time [min]:     0.120
 

 Direct DF-CCSD(T) calculation
 
 Convergence criterion:  1.0E-05
 
 Number of occupied/virtual/auxiliary orbitals:     5    42   138
     11.63 MB is the minimal memory requirement for (T)
      7.05 MB is the minimal memory requirement for CCSD
 
 MP2 correlation energy [au]:       -0.201518317179
 
 LMP2 domain correlation energy contribution [au]:       -0.049958711806
 
 CPU time [min]:     6.962                   Wall time [min]:     0.121
 
 
 Starting CCSD iterations...
 
                     Residual norm       Correlation Energy
 Iteration  1        0.119637963866       -0.211302813967
 Iteration  2        0.033176616174       -0.216180509017
 Iteration  3        0.009883376647       -0.217116717445
 Iteration  4        0.002610210227       -0.217102535489
 Iteration  5        0.000730952595       -0.217118937178
 Iteration  6        0.000221091085       -0.217119361109
 Iteration  7        0.000063693567       -0.217117595653
 
 CCSD iteration has converged in  7 steps.
       19.57 MB memory was utilized by CCSD
 
 T1 diagnostic:      8.796E-03            D1 diagnostic:      2.354E-02
 
 T1 contribution [au]:                         0.000000000000
 CCSD correlation energy [au]:                -0.053957084202
 
 CPU time [min]:     7.101                   Wall time [min]:     0.123
 
 Calculation of (T) correction...
 
 Laplace threshold, nquadmin:  1.00E-03   4
 Number of quadrature points:    4
 
       11.83 MB memory is utilized for (T)

 0%       25%       50%       75%       100%
 |---------|---------|---------|---------| 
 
 (T) correction [au]:                   -0.001356922511
 CCSD(T) correlation energy [au]:       -0.055314006714
 
 CPU time [min]:     7.168                   Wall time [min]:     0.124
 
 MO:     8
 Number of atoms in domain:      12
    Number of atoms in PCD:      12
 Number of atomic orbitals:     150
 Number of atoms for local DF:   12
 Number of fitting functions:   423 (100.00%)
 Number of occupied orbitals:     8
 Number of virtual  orbitals:   140
 Number of Cholesky vectors:      9
 MP2 energy in ED [au]:          -0.050070014752
 Number of occupied LNOs:         5  (62.50%)
 Number of virtual  LNOs:        45  (32.14%)
 Number of Cholesky vectors:      8
 MP2 energy in LIS [au]:         -0.050065531858
 Correction for frozen LNO [au]: -0.000004482894     (0.009%)
 Number of NAFs:                151  (35.70%)
 CPU time [min]:     7.923                   Wall time [min]:     0.137
 

 Direct DF-CCSD(T) calculation
 
 Convergence criterion:  1.0E-05
 
 Number of occupied/virtual/auxiliary orbitals:     5    45   151
     13.77 MB is the minimal memory requirement for (T)
      8.09 MB is the minimal memory requirement for CCSD
 
 MP2 correlation energy [au]:       -0.202219859283
 
 LMP2 domain correlation energy contribution [au]:       -0.050065063813
 
 CPU time [min]:     7.974                   Wall time [min]:     0.137
 
 
 Starting CCSD iterations...
 
                     Residual norm       Correlation Energy
 Iteration  1        0.120383545281       -0.212090609290
 Iteration  2        0.033287376540       -0.217038222457
 Iteration  3        0.009812722567       -0.217956821017
 Iteration  4        0.002598768659       -0.217942530187
 Iteration  5        0.000717782395       -0.217961606933
 Iteration  6        0.000210115898       -0.217961966702
 Iteration  7        0.000059410346       -0.217960284943
 
 CCSD iteration has converged in  7 steps.
       24.52 MB memory was utilized by CCSD
 
 T1 diagnostic:      8.696E-03            D1 diagnostic:      2.320E-02
 
 T1 contribution [au]:                         0.000000000000
 CCSD correlation energy [au]:                -0.054056035158
 
 CPU time [min]:     8.125                   Wall time [min]:     0.140
 
 Calculation of (T) correction...
 
 Laplace threshold, nquadmin:  1.00E-03   4
 Number of quadrature points:    4
 
       14.00 MB memory is utilized for (T)

 0%       25%       50%       75%       100%
 |---------|---------|---------|---------| 
 
 (T) correction [au]:                   -0.001369277326
 CCSD(T) correlation energy [au]:       -0.055425312484
 
 CPU time [min]:     8.200                   Wall time [min]:     0.141
 
 **********************************************************************
 Dimensions of the extended domains:    Minimum / Average / Maximum
 
 Number of atoms in domain:                  12      12.0        12
 Number of atomic orbitals:                 150     150.0       150
 Number of fitting functions:               423     423.0       423
 Number of occupied localized MOs:            8       8.0         8
 Number of PAOs:                            140     140.0       140
 Number of occupied LNOs:                     4       5.0         7
 Number of virtual  LNOs:                    42      44.2        52
 Number of NAFs:                            138     149.1       190
 
 **********************************************************************
 Distant (and weak) pair contributions, corrections
 
 Sum of pair energies [au]:                     0.000000000000    (0.000%)
 Sum of energy corrections [au]:               -0.000040980188    (0.010%)
 Pair energies + LNO corrections [au]:         -0.000040980188
 Sum of LMP2 contributions [au]:               -0.401374349752
 
 **********************************************************************
  Time of manipulations in the EDs:      max CPU/Wall [s]  all CPU/Wall [min]
 
 PD construction & multipole pair E       4.58     0.11     0.08     0.00
 Construct MO basis of the ED             1.34     0.02     0.15     0.00
 (mu,nu|P) evaluation & trf 2 (ai|P)      6.29     0.10     0.76     0.01
 Evaluate MP2 energy of the ED            0.36     0.01     0.05     0.00
 Transformations to the LNO basis         0.91     0.01     0.11     0.00
 Build W_PQ (Jai or Jpi part)             1.34     0.04     0.04     0.00
 Evaluate MP2 energy of the LIS           0.18     0.00     0.01     0.00
 (mu,nu|P) evaluation & trf 2 J(abQ)     30.86     0.54     3.53     0.06
 Total of the above for all EDs          41.26     0.72     4.65     0.08
 
 **********************************************************************
 Maximum memory requirement [MB]:       
 
 PD construction & multipole pair E          2.7
 AO integral evaluation in the EDs         315.2
 (mu,nu|P) evaluation & trf 2 (aI|P)       347.7
 Evaluate MP2 energy in the EDs             17.6
 Transformation to the LNO basis             8.9
 (mu,nu|P) to Jab transformation           321.8
 Evaluate MP2 energy in the LIS             11.6
 Minimum requirement for LIS CCSD           12.6
 Actually allocated  for LIS CCSD           41.5
 Minimum requirement for LIS (T)            22.2
 Actually allocated  for LIS (T)            24.4
 
 ======================================================================
 ======================================================================
 
 
 
 ======================================================================
 ======================================================================
 
 Final local CC results:
 
 Minimum number of correlated electrons:         8       ( 50.0%)
 Maximum number of correlated electrons:        14       ( 87.5%)
 Average number of correlated electrons:        10.0     ( 62.5%)
 Minimum number of correlated orbitals:         47       ( 31.8%)
 Maximum number of correlated orbitals:         59       ( 39.9%)
 Average number of correlated orbitals:         49.2     ( 33.3%)
 
 CPU time for integral calculations [min]:                  0.313
 Wall time for integral calculations [min]:                 0.007
 
 CPU time for SCF calculation [min]:                        3.052
 Wall time for SCF calculation [min]:                       0.070
 
 CPU time for orbital localization [min]:                   0.220
 Wall time for orbital localization [min]:                  0.017
 
 CPU time for integral transformations [min]:               6.082
 Wall time for integral transformations [min]:              0.106
 
 Reference energy [au]:                                  -112.408625684300
 
 LMP2 correlation energy [au]:                             -0.401374349752
 Total LMP2 energy [au]:                                 -112.810000034053
 
 Total MP2 correction for dropped NAFs [au]:               -0.000002437315
 Total MP2 correction [au]:                                -0.000043417503
 
 CPU time for CCSD calculations [min]:                      1.534
 Total CPU time for CCSD [min]:                            11.200
 Wall time for CCSD calculations [min]:                     0.025
 Total wall time for CCSD [min]:                            0.226
 
 CCSD correlation energy [au]:                             -0.431757887925
 Total CCSD energy [au]:                                 -112.840383572225
 CCSD correlation energy + 0.5 MP2 corrections [au]:       -0.431779596677
 Total LNO-CCSD energy with MP2 corrections [au]:        -112.840405280977
 
 CPU time for (T) corrections [min]:                        0.606
 Total CPU time for CCSD(T) [min]:                         11.806
 Wall time for (T) corrections [min]:                       0.011
 Total wall time for CCSD(T) [min]:                         0.237
 
 Total (T) correlation energy contribution [au]:           -0.011233118966
 Total (T) correlation energy+0.5 MP2 correction [au]:     -0.011254827717
 CCSD(T) correlation energy [au]:                          -0.442991006891
 Total CCSD(T) energy [au]:                              -112.851616691191
 CCSD(T) correlation energy + MP2 corrections [au]:        -0.443034424394
 Total LNO-CCSD(T) energy with MP2 corrections [au]:     -112.851660108694
 
 ======================================================================
 ======================================================================
 
 ************************ 2026-02-26 22:01:29 *************************
                      Normal termination of mrcc.
 **********************************************************************
