 **********************************************************************
                          MRCC program system
 **********************************************************************
 
                              Written by
     Mihaly Kallay, Peter R. Nagy, David Mester, Laszlo Gyevi-Nagy,
        Jozsef Csoka, P. Bernat Szabo, Zoltan Rolik, Gyula Samu,
     Jozsef Csontos, Bence Hegely, Adam Ganyecz, Istvan Ladjanszki,
       Lorant Szegedy, Bence Ladoczki, Klara Petrov, Mate Farkas,
                    Pal D. Mezei, and Reka A. Horvath
 
        Department of Physical Chemistry and Materials Science
            Budapest University of Technology and Economics
                  Budapest P.O.Box 91, H-1521 Hungary
 
                              www.mrcc.hu
 
                     Release date: August 28, 2023

 ************************ 2026-02-26 16:42:55 *************************
 Executing minp...

 Reading input from MINP...
 
 Input file:
 
charge=0
mult=1
calc=LNO-CCSD(T)
basis=aug-cc-pVTZ
symm=off
verbosity=3
unit=angs
scfalg=locfit1
scfmaxit=200
scftol=8
basis_sm=def2-SVP
usedisk=0
aocd=extra
chtol=1d-6
iesttol=0.001
scfiguess=small
lcorthr=vtight
mem=46GB
ghost=serialno
1-4

geom=xyz
8

N      1.52055517382    4.08582522547    3.60997942338
H      2.03268242072    3.26858901465    3.96157875919
H      0.70326531255    3.73418533747    3.09787832187
H      1.16887278831    4.59789384265    4.42732807018
N      3.60995473454    6.65107191074    9.21627558721
H      4.42722968319    6.29943531034    9.72836809656
H      3.96163147006    7.16314798552    8.39891604077
H      3.09781293566    5.83383789254    8.86466418411
 
 
 Checking keyword combinations...
 
 Keywords:
 
 active=none
 agrid=ld0006-ld0590
 agrid_pssp=ld0006-ld0194
 agrid_pssp_sm=ld0006-ld0074
 basis=aug-cc-pvtz
 basis_sm=def2-svp
 basopt=off
 bfbasis=none
 bfgsmem=10
 bfgstol=1.0d-3
 boysalg=jacobi
 bpcompo=0.985
 bpcompv=0.98
 bpdfo=0.985
 bpocc=0.99999d0
 bppdo=0.999d0
 bppdv=0.98
 bpedo=0.99999d0
 bpedv=0.995d0
 calc=ccsd(t)
 ccmaxit=50
 ccprog=ccsd
 ccsdalg=dfdirect
 ccsdmkl=seq
 ccsdrest=off
 ccsdthreads=2
 cctol=5
 charge=0
 cialg=direct
 ciguess=off
 cmpgrp=auto
 comprest=off
 coord_sys=ric
 core=frozen
 corembed=off
 csapprox=off
 cvs=off
 dboc=off
 delocsomofact=
 dendec=cholesky
 dens=0
 denscorr=0
 dfalg=lineq
 dfbasis_cab=none
 dfbasis_cor=auto
 dfbasis_scf=auto
 dfbasis_scf_sm=auto
 dfintran=drpa
 dft=off
 dhexc=adc(2)
 diag=david
 docc=
 domrad=10.d0
 drpaalg=auto
 dual=off
 dual_df=off
 ecp=auto
 edisp=off
 edisp_embed=off
 embed=off
 epairestfact=off
 epairscale=1.d0
 etemp=300
 epert=none
 eps=
 espcharge=off
 excrad=1.0
 excrad_fin=0.100000000D-02
 fitting=coulomb
 fmm=off
 fmmord=8
 fnonorb=
 freq=off
 gamma=1.1d0
 gauss=spher
 geom=xyz
 gopt=off
 ghost=serialno
 gtol=7
 grdens=off
 grid=auto
 grid_sm=auto
 gridbatch_cos=2000
 grtol=10
 guido_ct=off
 hamilton=dc
 iface=none
 intalg=auto
 ip_ea=off
 itol=12
 laptol=1.d-3
 lccoporder=lccfirst
 lcorthr=vtight
 lccrest=off
 ldfgrad_tol=8
 lmp2dens=on
 lnoepso=1e-6
 lnoepsv=1e-7
 localcc=2021
 localcorrsymm=off
 locintrf=direct
 mact=
 maxact=off
 maxdim=200
 maxex=0
 maxmicroit=100
 mcscfiguess=hf
 mem=46gb
 mmprog=
 molden=on
 mpitasks=1
 mulmet=3
 mult=1
 nab=off
 nacto=0
 nactv=0
 naf_amp=3.16d-3
 naf_cor=1e-3
 naf_f12=off
 naf_scf=off
 nafalg=albe
 nafdens=off
 naftyp=jpq
 nchol=auto
 ndeps=1e-3
 nstate=1
 nsing=0
 nto=off
 ntrip=0
 num_grad=off
 occ=
 occri=off
 oniom=off
 oniom_eechg=off
 oniom_pcm=off
 oniom_qcorr=off
 optalg=
 optmaxit=50
 optetol=1e-6
 optex=0
 optgtol=1e-4
 optstol=1e-3
 orblocc=off
 orbloce=off
 orbloco=boys
 orblocv=pao
 orblocguess=cholesky
 osveps=-1.d0
 ovirt=off
 ovltol=1e-7
 ovosnorb=80.0
 pao_subsys_tol=1e-3
 pcm=off
 popul=off
 pressure=100000
 pssp=off
 ptfreq=0.0
 ptthreads=2
 qmreg=
 qmmm=off
 qro=off
 qscf=off
 redcost_exc=off
 redcost_tddft=0.985d0
 refdet=none
 rest=0
 rgrid=log3
 rism=off
 rohfcore=standard
 rohftype=semicanonical
 scfalg=locfit1
 scf_conv=auto
 scfdamp=0.0d0
 scfdamp_mode=off
 scfdamp_end=200
 scfdamp_dampstep=0.d0
 scfdamp_dtol=0.0d0
 scfdamp_maxfact=0.0d0
 scfdamp_minfact=0.0d0
 scfdiis=on
 scfdiis_dtol=0.0d0
 scfdiis_end=200
 scfdiis_start=2
 scfdiis_step=1
 scfdiis_watch=off
 scfdiis_wrange=10
 scfdiis_wlimit=5
 scfdiis_delmax=2
 scfdtol=9
 scfext=10
 scfguessdens=
 scfiguess=small
 scfloc=pm
 scflshift=0.20
 scflshift_end=8
 scflshift_dtol=0.0
 scflshift_gaptol=0.20
 scfmaxit=200
 scftype=
 scftol=8
 scspe=1.d0
 scsph=1.d0
 scsps=1.2d0
 scsps_t=1.2d0
 scspt=0.33333333333333
 scspt_t=0.33333333333333
 scspv=1.d0
 spairtol=-1.d0
 sqmprog=
 subminp=top
 symm=0
 talg=lapl
 temp=298.15
 test=off
 theodore=off
 tlmo=0.999
 tpao=0.94
 tprint=off
 uncontract=off
 unit=angs
 usedisk=0
 verbosity=3
 wpairtol=1.d-6
 
 Calculating integrals for small-basis SCF...

 ************************ 2026-02-26 16:42:55 *************************
 Executing integ...

 Allocation of 46.0 Gbytes of memory...
 
 
 Number of atoms:                  8
 Charge:                           0
 Number of electrons:             10
 Number of core electrons:         2
 Spin multiplicity:                1
 
                 Cartesian coordinates [bohr]      Atomic mass [AMU]  Z
   1  N     2.87343284    7.72109067    6.82187243     0.000000       0
   2  H     3.84121308    6.17673805    7.48629888     0.000000       0
   3  H     1.32897883    7.05658759    5.85414160     0.000000       0
   4  H     2.20884945    8.68876012    8.36643752     0.000000       0
   5  N     6.82182577   12.56870435   17.41623676    14.003074       7
   6  H     8.36625160   11.90420748   18.38395135     1.007825       1
   7  H     7.48639849   13.53638789   15.87165107     1.007825       1
   8  H     5.85401804   11.02435588   16.75178750     1.007825       1
 
 This molecule is an asymmetric top.
 
 Point group: C1  
 Computational point group: C1  
 
 Cartesian coordinates in standard orientation [bohr]
   1  N   -11.12092842    0.11375896   -0.12855118
   2  H   -10.83131748   -1.23517393   -1.49221964
   3  H   -12.73565167   -0.37640392    0.82843089
   4  H    -9.64849677   -0.01644668    1.12792329
   5  N     1.17777730    0.00568830    0.11615065
   6  H     2.26939176   -0.60739097   -1.36566931
   7  H     0.46706613    1.74249553   -0.37599117
   8  H    -0.32755414   -1.20939808    0.26002270
 
 Nuclear repulsion energy [au]:         11.785794585729
 
Warning: for H atoms in the case of dfbasis_scf=auto the AO basis is set as dfbasis_scf instead of def2-qzvp(pd)-ri-jk because the AO basis is larger. Set the dfbasis_scf=def2-qzvp(pd)-ri-jk in MINP if that is desired.
 
 
 Basis set information:
 
 Maximum angular momentum: g
 Maximum number of contracted Gaussians:   10
 Maximum number of primitive Gaussians:    14
 Spherical harmonic GTOs are used.
 
 
 Conventional basis set:
 
   1  N  def2-svp [ 7s 4p 1d | 3s 2p 1d ]
   2  H  def2-svp [ 4s 1p | 2s 1p ]
   3  H  def2-svp [ 4s 1p | 2s 1p ]
   4  H  def2-svp [ 4s 1p | 2s 1p ]
   5  N  def2-svp [ 7s 4p 1d | 3s 2p 1d ]
   6  H  def2-svp [ 4s 1p | 2s 1p ]
   7  H  def2-svp [ 4s 1p | 2s 1p ]
   8  H  def2-svp [ 4s 1p | 2s 1p ]
 
 Basis functions:
            1             2             3             4             5             6             7             8             9            10
    0    1N1s          1N2s          1N3s          1N1pz         1N1py         1N1px         1N2pz         1N2py         1N2px         1N1d-2    
    1    1N1d-1        1N1d0         1N1d+1        1N1d+2        2H1s          2H2s          2H1pz         2H1py         2H1px         3H1s      
    2    3H2s          3H1pz         3H1py         3H1px         4H1s          4H2s          4H1pz         4H1py         4H1px         5N1s      
    3    5N2s          5N3s          5N1pz         5N1py         5N1px         5N2pz         5N2py         5N2px         5N1d-2        5N1d-1    
    4    5N1d0         5N1d+1        5N1d+2        6H1s          6H2s          6H1pz         6H1py         6H1px         7H1s          7H2s      
    5    7H1pz         7H1py         7H1px         8H1s          8H2s          8H1pz         8H1py         8H1px     
 
 Maximum number of basis functions per shell:    6
 Total number of basis functions:     58
 
 
 Fitting basis set for the SCF calculation:
 
   1  N  def2-qzvpp-ri-jk [ 14s 10p 6d 2f 1g | 10s 8p 4d 2f 1g ]
   2  H  def2-qzvpp [ 7s 3p 2d 1f | 4s 3p 2d 1f ]
   3  H  def2-qzvpp [ 7s 3p 2d 1f | 4s 3p 2d 1f ]
   4  H  def2-qzvpp [ 7s 3p 2d 1f | 4s 3p 2d 1f ]
   5  N  def2-qzvpp-ri-jk [ 14s 10p 6d 2f 1g | 10s 8p 4d 2f 1g ]
   6  H  def2-qzvpp [ 7s 3p 2d 1f | 4s 3p 2d 1f ]
   7  H  def2-qzvpp [ 7s 3p 2d 1f | 4s 3p 2d 1f ]
   8  H  def2-qzvpp [ 7s 3p 2d 1f | 4s 3p 2d 1f ]
 
 Basis functions:
            1             2             3             4             5             6             7             8             9            10
    0    1N1s          1N2s          1N3s          1N4s          1N5s          1N6s          1N7s          1N8s          1N9s          1N10s     
    1    1N1pz         1N1py         1N1px         1N2pz         1N2py         1N2px         1N3pz         1N3py         1N3px         1N4pz     
    2    1N4py         1N4px         1N5pz         1N5py         1N5px         1N6pz         1N6py         1N6px         1N7pz         1N7py     
    3    1N7px         1N8pz         1N8py         1N8px         1N1d-2        1N1d-1        1N1d0         1N1d+1        1N1d+2        1N2d-2    
    4    1N2d-1        1N2d0         1N2d+1        1N2d+2        1N3d-2        1N3d-1        1N3d0         1N3d+1        1N3d+2        1N4d-2    
    5    1N4d-1        1N4d0         1N4d+1        1N4d+2        1N1f-3        1N1f-2        1N1f-1        1N1f0         1N1f+1        1N1f+2    
    6    1N1f+3        1N2f-3        1N2f-2        1N2f-1        1N2f0         1N2f+1        1N2f+2        1N2f+3        1N1g-4        1N1g-3    
    7    1N1g-2        1N1g-1        1N1g0         1N1g+1        1N1g+2        1N1g+3        1N1g+4        2H1s          2H2s          2H3s      
    8    2H4s          2H1pz         2H1py         2H1px         2H2pz         2H2py         2H2px         2H3pz         2H3py         2H3px     
    9    2H1d-2        2H1d-1        2H1d0         2H1d+1        2H1d+2        2H2d-2        2H2d-1        2H2d0         2H2d+1        2H2d+2    
   10    2H1f-3        2H1f-2        2H1f-1        2H1f0         2H1f+1        2H1f+2        2H1f+3        3H1s          3H2s          3H3s      
   11    3H4s          3H1pz         3H1py         3H1px         3H2pz         3H2py         3H2px         3H3pz         3H3py         3H3px     
   12    3H1d-2        3H1d-1        3H1d0         3H1d+1        3H1d+2        3H2d-2        3H2d-1        3H2d0         3H2d+1        3H2d+2    
   13    3H1f-3        3H1f-2        3H1f-1        3H1f0         3H1f+1        3H1f+2        3H1f+3        4H1s          4H2s          4H3s      
   14    4H4s          4H1pz         4H1py         4H1px         4H2pz         4H2py         4H2px         4H3pz         4H3py         4H3px     
   15    4H1d-2        4H1d-1        4H1d0         4H1d+1        4H1d+2        4H2d-2        4H2d-1        4H2d0         4H2d+1        4H2d+2    
   16    4H1f-3        4H1f-2        4H1f-1        4H1f0         4H1f+1        4H1f+2        4H1f+3        5N1s          5N2s          5N3s      
   17    5N4s          5N5s          5N6s          5N7s          5N8s          5N9s          5N10s         5N1pz         5N1py         5N1px     
   18    5N2pz         5N2py         5N2px         5N3pz         5N3py         5N3px         5N4pz         5N4py         5N4px         5N5pz     
   19    5N5py         5N5px         5N6pz         5N6py         5N6px         5N7pz         5N7py         5N7px         5N8pz         5N8py     
   20    5N8px         5N1d-2        5N1d-1        5N1d0         5N1d+1        5N1d+2        5N2d-2        5N2d-1        5N2d0         5N2d+1    
   21    5N2d+2        5N3d-2        5N3d-1        5N3d0         5N3d+1        5N3d+2        5N4d-2        5N4d-1        5N4d0         5N4d+1    
   22    5N4d+2        5N1f-3        5N1f-2        5N1f-1        5N1f0         5N1f+1        5N1f+2        5N1f+3        5N2f-3        5N2f-2    
   23    5N2f-1        5N2f0         5N2f+1        5N2f+2        5N2f+3        5N1g-4        5N1g-3        5N1g-2        5N1g-1        5N1g0     
   24    5N1g+1        5N1g+2        5N1g+3        5N1g+4        6H1s          6H2s          6H3s          6H4s          6H1pz         6H1py     
   25    6H1px         6H2pz         6H2py         6H2px         6H3pz         6H3py         6H3px         6H1d-2        6H1d-1        6H1d0     
   26    6H1d+1        6H1d+2        6H2d-2        6H2d-1        6H2d0         6H2d+1        6H2d+2        6H1f-3        6H1f-2        6H1f-1    
   27    6H1f0         6H1f+1        6H1f+2        6H1f+3        7H1s          7H2s          7H3s          7H4s          7H1pz         7H1py     
   28    7H1px         7H2pz         7H2py         7H2px         7H3pz         7H3py         7H3px         7H1d-2        7H1d-1        7H1d0     
   29    7H1d+1        7H1d+2        7H2d-2        7H2d-1        7H2d0         7H2d+1        7H2d+2        7H1f-3        7H1f-2        7H1f-1    
   30    7H1f0         7H1f+1        7H1f+2        7H1f+3        8H1s          8H2s          8H3s          8H4s          8H1pz         8H1py     
   31    8H1px         8H2pz         8H2py         8H2px         8H3pz         8H3py         8H3px         8H1d-2        8H1d-1        8H1d0     
   32    8H1d+1        8H1d+2        8H2d-2        8H2d-1        8H2d0         8H2d+1        8H2d+2        8H1f-3        8H1f-2        8H1f-1    
   33    8H1f0         8H1f+1        8H1f+2        8H1f+3    
 
 Maximum number of basis functions per shell:   24
 Total number of basis functions:    334
 
 
 Initializing the SAD routines for the initial guess...
 Checking the files required for the initial guess...
 Atomic density files have been found for the atoms with the following serial numbers:
  
 Atomic density files have not been found for the atoms with the following serial numbers:
  5 6 7 8
 Generating SCFDENSITIES.N.def2-svp.0
 Generating SCFDENSITIES.H.def2-svp.0
 CPU time [min]:     0.215                   Wall time [min]:     0.144
 
 Character table for point group C1:
 
          E  
    A     1
 
 Number of basis functions per irrep:
    A      58
 
 
 Calculation of overlap integrals...
 CPU time [min]:     0.217                   Wall time [min]:     0.144
 
 Calculation of the square root of the overlap matrix...
 Minimum eigenvalue of the overlap matrix: 0.297940E-01
 CPU time [min]:     0.238                   Wall time [min]:     0.145
 
 Calculation of kinetic energy integrals...
 CPU time [min]:     0.239                   Wall time [min]:     0.145
 Calculation of dipole moment integrals...
 CPU time [min]:     0.240                   Wall time [min]:     0.145
 Calculation of nuclear attraction integrals...
 CPU time [min]:     0.241                   Wall time [min]:     0.145
 
 Calculation of prescreening integrals...
 CPU time [min]:     0.252                   Wall time [min]:     0.145
 
 Calculation of two-center Coulomb integrals...
   1% done.
  13% done.
  25% done.
  36% done.
  50% done.
  64% done.
  79% done.
  90% done.
 100% done.
 CPU time [min]:     0.264                   Wall time [min]:     0.145
 
 Cholesky decomposition of the two-center matrix...
 Reciprocal of the condition number:  0.134131E-04
 CPU time [min]:     0.282                   Wall time [min]:     0.145
 
 
 Running small-basis SCF...

 ************************ 2026-02-26 16:43:04 *************************
 Executing scf...

 @scfsetup: integrals calculated directly
            mrcc/integ direct run
 @scfsetup: calculating on full matrices
            not using symmetry adapted basis
 @scfsetup: diis switched on
 @scfsetup: number of steps to extrapolate from  10
 @scfsetup: tolerance in energy deviation    0.100000E-07
            tolerance in density deviation    0.100000E-08
 @scfsetup: maximum number of iterations: 200
 @scfsetup: restricted closed shell hf calc
 @scfsetup: starting scf from superposition of atomic densities
 @scfsetup: occupation set:
            from initial orbitals
 @scfsetup: Parameter-set for SCF acceleration: normal
 @scfsetup: diis runs from iteration:   2
 @scfsetup: diis runs to iteration: 200
 @scfsetup: diis runs in every iteration
 @scfsetup: diiswatch is disabled                   
 @scfsetup: diis dtol criteria to switch on:      0.0000E+00
           (or the iteration number below is reached)
 @scfsetup: static damping scheme
            iteration step criteria to turn damping off: 3
 @scfsetup: dynamic level shifting
            tolarance in HOMO-LUMO gap:  0.200
            tolarance in density deviation:     0.0000E+00
            iteration step criteria to turn level shifting off: 8
 Allocation of 46.0 Gbytes of memory...
 ======================================================================
 ITERATION STEP   1
 CPU time [min]:     0.014                   Wall time [min]:     0.008
 

 SCF control                  : initial
 Damping factor/level shift   : 0.000/0.200
 DIIS [start/end/frequency]   :   2 /200 /  1

 Constructing Fock-matrix...
 
 Pipek-Mezey localization...
 Step  Convergence
   1   1.004773283260
   2   0.044195068752
   3   0.000193273254
   4   0.000000205993
   5   0.000000000168
 CPU time [min]:     0.041                   Wall time [min]:     0.009
 
 Constructing local fitting domains...
 Maximum number of atoms in fitting domains:    4
 Average number of atoms in fitting domains:    4.0
 
 First step of Coulomb + first step of exchange...
 Exchange contribution is evaluated for MOs 1 to 5.
   3% done.
  14% done.
  25% done.
  43% done.
  55% done.
  69% done.
  84% done.
 100% done.
 Fitting and assembly step of exchange...
 CPU time [min]:     0.124                   Wall time [min]:     0.010
 
 Second step of Coulomb...
   3% done.
  14% done.
  25% done.
  43% done.
  55% done.
  69% done.
  84% done.
 100% done.
 CPU time [min]:     0.140                   Wall time [min]:     0.010
 
 Gradient norm:      2.3664E+00
 RMS of [F,P]:                                         0.03753548709981
 RMS of difference density:                            0.01360467599572
 Gap [au]:  0.67797411
 ALPHA OCC:   5
 BETA  OCC:   5
 
 ***HARTREE-FOCK ENERGY IN STEP   1 IS        -55.8598435804952800 [AU]
 ======================================================================
 ITERATION STEP   2
 CPU time [min]:     0.150                   Wall time [min]:     0.010
 

 SCF control                  : diis
 Damping factor/level shift   : 0.000/0.000
 DIIS [start/end/frequency]   :   2 /200 /  1

 Constructing Fock-matrix...
 
 Pipek-Mezey localization...
 Step  Convergence
   1   0.020412457997
   2   0.020384686276
   3   0.000002795056
   4   0.000000006873
 CPU time [min]:     0.173                   Wall time [min]:     0.011
 
 Constructing local fitting domains...
 Maximum number of atoms in fitting domains:    4
 Average number of atoms in fitting domains:    4.0
 
 First step of Coulomb + first step of exchange...
 Exchange contribution is evaluated for MOs 1 to 5.
   3% done.
  14% done.
  25% done.
  43% done.
  55% done.
  69% done.
  84% done.
 100% done.
 Fitting and assembly step of exchange...
 CPU time [min]:     0.234                   Wall time [min]:     0.012
 
 Second step of Coulomb...
   3% done.
  14% done.
  25% done.
  43% done.
  55% done.
  69% done.
  84% done.
 100% done.
 CPU time [min]:     0.249                   Wall time [min]:     0.012
 
 Gradient norm:      3.2141E-01
 DIIS is running in this iteration step.
 RMS of [F,P]:                                         0.00802366267840
 RMS of difference density:                            0.00629621862297
 Gap [au]:  0.48125307
 ALPHA OCC:   5
 BETA  OCC:   5
 
 ***HARTREE-FOCK ENERGY IN STEP   2 IS        -56.1230173576034446 [AU]
 
 Step comparison  Energy Drift [au]  DIIS error drift  Gradient drift
        1            2.6317E-01         2.9512E-02       2.0450E+00
        2            5.6123E+01         1.0000E-09       2.0450E+00
 ======================================================================
 ITERATION STEP   3
 CPU time [min]:     0.263                   Wall time [min]:     0.012
 

 SCF control                  : diis
 Damping factor/level shift   : 0.000/0.000
 DIIS [start/end/frequency]   :   2 /200 /  1

 Constructing Fock-matrix...
 
 Pipek-Mezey localization...
 Step  Convergence
   1   0.020185517407
   2   0.020325570502
   3   0.000002178569
   4   0.000000002740
 CPU time [min]:     0.286                   Wall time [min]:     0.013
 
 Constructing local fitting domains...
 Local fitting domains are unchanged.
 
 First step of Coulomb + first step of exchange...
 Exchange contribution is evaluated for MOs 1 to 5.
   3% done.
  14% done.
  25% done.
  43% done.
  55% done.
  69% done.
  84% done.
 100% done.
 Fitting and assembly step of exchange...
 CPU time [min]:     0.345                   Wall time [min]:     0.014
 
 Second step of Coulomb...
   3% done.
  14% done.
  25% done.
  43% done.
  55% done.
  69% done.
  84% done.
 100% done.
 CPU time [min]:     0.360                   Wall time [min]:     0.014
 
 Gradient norm:      1.2376E-01
 DIIS is running in this iteration step.
 RMS of [F,P]:                                         0.00381732716865
 RMS of difference density:                            0.00191422007241
 Gap [au]:  0.54380970
 ALPHA OCC:   5
 BETA  OCC:   5
 
 ***HARTREE-FOCK ENERGY IN STEP   3 IS        -56.1422982972740243 [AU]
 
 Step comparison  Energy Drift [au]  DIIS error drift  Gradient drift
        2            1.9281E-02         4.2063E-03       1.9765E-01
 ======================================================================
 ITERATION STEP   4
 CPU time [min]:     0.372                   Wall time [min]:     0.014
 

 SCF control                  : diis
 Damping factor/level shift   : 0.000/0.000
 DIIS [start/end/frequency]   :   2 /200 /  1

 Constructing Fock-matrix...
 
 Pipek-Mezey localization...
 Step  Convergence
   1   0.019962717074
   2   0.020303872326
   3   0.000002032757
   4   0.000000000187
 CPU time [min]:     0.395                   Wall time [min]:     0.014
 
 Constructing local fitting domains...
 Local fitting domains are unchanged.
 
 First step of Coulomb + first step of exchange...
 Exchange contribution is evaluated for MOs 1 to 5.
   3% done.
  14% done.
  25% done.
  43% done.
  55% done.
  69% done.
  84% done.
 100% done.
 Fitting and assembly step of exchange...
 CPU time [min]:     0.454                   Wall time [min]:     0.015
 
 Second step of Coulomb...
   3% done.
  14% done.
  25% done.
  43% done.
  55% done.
  69% done.
  84% done.
 100% done.
 CPU time [min]:     0.468                   Wall time [min]:     0.016
 
 Gradient norm:      2.4155E-02
 DIIS is running in this iteration step.
 RMS of [F,P]:                                         0.00047244266671
 RMS of difference density:                            0.00047756225093
 Gap [au]:  0.53562443
 ALPHA OCC:   5
 BETA  OCC:   5
 
 ***HARTREE-FOCK ENERGY IN STEP   4 IS        -56.1475430246452802 [AU]
 
 Step comparison  Energy Drift [au]  DIIS error drift  Gradient drift
        3            5.2447E-03         3.3449E-03       9.9603E-02
 ======================================================================
 ITERATION STEP   5
 CPU time [min]:     0.480                   Wall time [min]:     0.016
 

 SCF control                  : diis
 Damping factor/level shift   : 0.000/0.000
 DIIS [start/end/frequency]   :   2 /200 /  1

 Constructing Fock-matrix...
 
 Pipek-Mezey localization...
 Step  Convergence
   1   0.029926619790
   2   0.030077605775
   3   0.000056534589
   4   0.000000347477
   5   0.000000000705
 CPU time [min]:     0.504                   Wall time [min]:     0.016
 
 Constructing local fitting domains...
 Local fitting domains are unchanged.
 
 First step of Coulomb + first step of exchange...
 Exchange contribution is evaluated for MOs 1 to 5.
   3% done.
  14% done.
  25% done.
  43% done.
  55% done.
  69% done.
  84% done.
 100% done.
 Fitting and assembly step of exchange...
 CPU time [min]:     0.562                   Wall time [min]:     0.017
 
 Second step of Coulomb...
   3% done.
  14% done.
  25% done.
  43% done.
  55% done.
  69% done.
  84% done.
 100% done.
 CPU time [min]:     0.577                   Wall time [min]:     0.017
 
 Gradient norm:      2.0133E-03
 DIIS is running in this iteration step.
 RMS of [F,P]:                                         0.00007821069280
 RMS of difference density:                            0.00006560758257
 Gap [au]:  0.53589121
 ALPHA OCC:   5
 BETA  OCC:   5
 
 ***HARTREE-FOCK ENERGY IN STEP   5 IS        -56.1477032867364443 [AU]
 
 Step comparison  Energy Drift [au]  DIIS error drift  Gradient drift
        4            1.6026E-04         3.9423E-04       2.2141E-02
 ======================================================================
 ITERATION STEP   6
 CPU time [min]:     0.589                   Wall time [min]:     0.018
 

 SCF control                  : diis
 Damping factor/level shift   : 0.000/0.000
 DIIS [start/end/frequency]   :   2 /200 /  1

 Constructing Fock-matrix...
 
 Pipek-Mezey localization...
 Step  Convergence
   1   0.040013259169
   2   0.040398922033
   3   0.000039691124
   4   0.000000131946
   5   0.000000000283
 CPU time [min]:     0.613                   Wall time [min]:     0.018
 
 Constructing local fitting domains...
 Local fitting domains are unchanged.
 
 First step of Coulomb + first step of exchange...
 Exchange contribution is evaluated for MOs 1 to 5.
   3% done.
  14% done.
  25% done.
  43% done.
  55% done.
  69% done.
  84% done.
 100% done.
 Fitting and assembly step of exchange...
 CPU time [min]:     0.671                   Wall time [min]:     0.019
 
 Second step of Coulomb...
   3% done.
  14% done.
  25% done.
  43% done.
  55% done.
  69% done.
  84% done.
 100% done.
 CPU time [min]:     0.686                   Wall time [min]:     0.019
 
 Gradient norm:      3.2196E-04
 DIIS is running in this iteration step.
 RMS of [F,P]:                                         0.00000816358591
 RMS of difference density:                            0.00000606708123
 Gap [au]:  0.53593934
 ALPHA OCC:   5
 BETA  OCC:   5
 
 ***HARTREE-FOCK ENERGY IN STEP   6 IS        -56.1477065520131404 [AU]
 
 Step comparison  Energy Drift [au]  DIIS error drift  Gradient drift
        5            3.2653E-06         7.0047E-05       1.6913E-03
 ======================================================================
 ITERATION STEP   7
 CPU time [min]:     0.698                   Wall time [min]:     0.019
 

 SCF control                  : diis
 Damping factor/level shift   : 0.000/0.000
 DIIS [start/end/frequency]   :   2 /200 /  1

 Constructing Fock-matrix...
 
 Pipek-Mezey localization...
 Step  Convergence
   1   0.039895787400
   2   0.040751383637
   3   0.000065184439
   4   0.000000401765
   5   0.000000000810
   6   0.000000000002
   7   0.000000000000
 CPU time [min]:     0.721                   Wall time [min]:     0.020
 
 Constructing local fitting domains...
 Local fitting domains are unchanged.
 
 First step of Coulomb + first step of exchange...
 Exchange contribution is evaluated for MOs 1 to 5.
   3% done.
  14% done.
  25% done.
  43% done.
  55% done.
  69% done.
  84% done.
 100% done.
 Fitting and assembly step of exchange...
 CPU time [min]:     0.780                   Wall time [min]:     0.021
 
 Second step of Coulomb...
   3% done.
  14% done.
  25% done.
  43% done.
  55% done.
  69% done.
  84% done.
 100% done.
 CPU time [min]:     0.794                   Wall time [min]:     0.021
 
 Gradient norm:      7.7181E-05
 DIIS is running in this iteration step.
 RMS of [F,P]:                                         0.00000132547043
 RMS of difference density:                            0.00000143402150
 Gap [au]:  0.53592857
 ALPHA OCC:   5
 BETA  OCC:   5
 
 ***HARTREE-FOCK ENERGY IN STEP   7 IS        -56.1477065874631478 [AU]
 
 Step comparison  Energy Drift [au]  DIIS error drift  Gradient drift
        6            3.5450E-08         6.8381E-06       2.4477E-04
 ======================================================================
 ITERATION STEP   8
 CPU time [min]:     0.807                   Wall time [min]:     0.021
 

 SCF control                  : diis
 Damping factor/level shift   : 0.000/0.000
 DIIS [start/end/frequency]   :   2 /200 /  1

 Constructing Fock-matrix...
 
 Pipek-Mezey localization...
 Step  Convergence
   1   0.045308032956
   2   0.044463493996
   3   0.000034308049
   4   0.000000084931
   5   0.000000000401
   6   0.000000000002
   7   0.000000000000
 CPU time [min]:     0.830                   Wall time [min]:     0.022
 
 Constructing local fitting domains...
 Local fitting domains are unchanged.
 
 First step of Coulomb + first step of exchange...
 Exchange contribution is evaluated for MOs 1 to 5.
   3% done.
  14% done.
  25% done.
  43% done.
  55% done.
  69% done.
  84% done.
 100% done.
 Fitting and assembly step of exchange...
 CPU time [min]:     0.888                   Wall time [min]:     0.023
 
 Second step of Coulomb...
   3% done.
  14% done.
  25% done.
  43% done.
  55% done.
  69% done.
  84% done.
 100% done.
 CPU time [min]:     0.903                   Wall time [min]:     0.023
 
 Gradient norm:      1.0791E-05
 DIIS is running in this iteration step.
 RMS of [F,P]:                                         0.00000027275696
 RMS of difference density:                            0.00000048478725
 Gap [au]:  0.53592421
 ALPHA OCC:   5
 BETA  OCC:   5
 
 ***HARTREE-FOCK ENERGY IN STEP   8 IS        -56.1477065891182292 [AU]
 
 Step comparison  Energy Drift [au]  DIIS error drift  Gradient drift
        7            1.6551E-09         1.0527E-06       6.6390E-05
 ======================================================================
 ITERATION STEP   9
 CPU time [min]:     0.916                   Wall time [min]:     0.023
 

 SCF control                  : diis
 Damping factor/level shift   : 0.000/0.000
 DIIS [start/end/frequency]   :   2 /200 /  1

 Constructing Fock-matrix...
 
 Pipek-Mezey localization...
 Step  Convergence
   1   0.045548997196
   2   0.044759579327
   3   0.000053785612
   4   0.000000318350
   5   0.000000000651
   6   0.000000000001
   7   0.000000000000
 CPU time [min]:     0.939                   Wall time [min]:     0.024
 
 Constructing local fitting domains...
 Local fitting domains are unchanged.
 
 First step of Coulomb + first step of exchange...
 Exchange contribution is evaluated for MOs 1 to 5.
   3% done.
  14% done.
  25% done.
  43% done.
  55% done.
  69% done.
  84% done.
 100% done.
 Fitting and assembly step of exchange...
 CPU time [min]:     0.997                   Wall time [min]:     0.025
 
 Second step of Coulomb...
   3% done.
  14% done.
  25% done.
  43% done.
  55% done.
  69% done.
  84% done.
 100% done.
 CPU time [min]:     1.012                   Wall time [min]:     0.025
 
 Gradient norm:      3.1517E-06
 DIIS is running in this iteration step.
 RMS of [F,P]:                                         0.00000004841113
 RMS of difference density:                            0.00000014572631
 Gap [au]:  0.53592387
 ALPHA OCC:   5
 BETA  OCC:   5
 
 ***HARTREE-FOCK ENERGY IN STEP   9 IS        -56.1477065892215137 [AU]
 
 Step comparison  Energy Drift [au]  DIIS error drift  Gradient drift
        8            1.0328E-10         2.2435E-07       7.6390E-06
 ======================================================================
 ITERATION STEP  10
 CPU time [min]:     1.025                   Wall time [min]:     0.025
 

 SCF control                  : diis
 Damping factor/level shift   : 0.000/0.000
 DIIS [start/end/frequency]   :   2 /200 /  1

 Constructing Fock-matrix...
 
 Pipek-Mezey localization...
 Step  Convergence
   1   0.040138411571
   2   0.040618530402
   3   0.000017967194
   4   0.000000001138
   5   0.000000000000
 CPU time [min]:     1.048                   Wall time [min]:     0.025
 
 Constructing local fitting domains...
 Local fitting domains are unchanged.
 
 First step of Coulomb + first step of exchange...
 Exchange contribution is evaluated for MOs 1 to 5.
   3% done.
  14% done.
  25% done.
  43% done.
  55% done.
  69% done.
  84% done.
 100% done.
 Fitting and assembly step of exchange...
 CPU time [min]:     1.108                   Wall time [min]:     0.026
 
 Second step of Coulomb...
   3% done.
  14% done.
  25% done.
  43% done.
  55% done.
  69% done.
  84% done.
 100% done.
 CPU time [min]:     1.122                   Wall time [min]:     0.027
 
 Gradient norm:      6.3389E-07
 DIIS is running in this iteration step.
 RMS of [F,P]:                                         0.00000001090860
 RMS of difference density:                            0.00000003597634
 Gap [au]:  0.53592391
 ALPHA OCC:   5
 BETA  OCC:   5
 
 ***HARTREE-FOCK ENERGY IN STEP  10 IS        -56.1477065892263738 [AU]
 
 Step comparison  Energy Drift [au]  DIIS error drift  Gradient drift
        9            4.8601E-12         3.7503E-08       2.5178E-06
 ======================================================================
 ITERATION STEP  11
 CPU time [min]:     1.135                   Wall time [min]:     0.027
 

 SCF control                  : diis
 Damping factor/level shift   : 0.000/0.000
 DIIS [start/end/frequency]   :   2 /200 /  1

 Constructing Fock-matrix...
 
 Pipek-Mezey localization...
 Step  Convergence
   1   0.040011740160
   2   0.040730526214
   3   0.000070289738
   4   0.000000367472
   5   0.000000000787
   6   0.000000000004
   7   0.000000000000
 CPU time [min]:     1.158                   Wall time [min]:     0.027
 
 Constructing local fitting domains...
 Local fitting domains are unchanged.
 
 First step of Coulomb + first step of exchange...
 Exchange contribution is evaluated for MOs 1 to 5.
   3% done.
  14% done.
  25% done.
  43% done.
  55% done.
  69% done.
  84% done.
 100% done.
 Fitting and assembly step of exchange...
 CPU time [min]:     1.218                   Wall time [min]:     0.028
 
 Second step of Coulomb...
   3% done.
  14% done.
  25% done.
  43% done.
  55% done.
  69% done.
  84% done.
 100% done.
 CPU time [min]:     1.233                   Wall time [min]:     0.028
 
 Gradient norm:      4.4700E-08
 DIIS is running in this iteration step.
 RMS of [F,P]:                                         0.00000000098832
 RMS of difference density:                            0.00000000194955
 Gap [au]:  0.53592393
 ALPHA OCC:   5
 BETA  OCC:   5
 
 ***HARTREE-FOCK ENERGY IN STEP  11 IS        -56.1477065892266296 [AU]
 
 Step comparison  Energy Drift [au]  DIIS error drift  Gradient drift
       10            2.5580E-13         9.9203E-09       5.8919E-07
 ======================================================================
 ITERATION STEP  12
 CPU time [min]:     1.245                   Wall time [min]:     0.029
 

 SCF control                  : diis
 Damping factor/level shift   : 0.000/0.000
 DIIS [start/end/frequency]   :   2 /200 /  1

 Constructing Fock-matrix...
 
 Pipek-Mezey localization...
 Step  Convergence
   1   0.039895851573
   2   0.040557462538
   3   0.000024570589
   4   0.000000004154
   5   0.000000000010
   6   0.000000000000
 CPU time [min]:     1.268                   Wall time [min]:     0.029
 
 Constructing local fitting domains...
 Local fitting domains are unchanged.
 
 First step of Coulomb + first step of exchange...
 Exchange contribution is evaluated for MOs 1 to 5.
   3% done.
  14% done.
  25% done.
  43% done.
  55% done.
  69% done.
  84% done.
 100% done.
 Fitting and assembly step of exchange...
 CPU time [min]:     1.328                   Wall time [min]:     0.030
 
 Second step of Coulomb...
   3% done.
  14% done.
  25% done.
  43% done.
  55% done.
  69% done.
  84% done.
 100% done.
 CPU time [min]:     1.342                   Wall time [min]:     0.030
 
 Gradient norm:      3.1961E-09
 DIIS is running in this iteration step.
 RMS of [F,P]:                                         0.00000000008228
 RMS of difference density:                            0.00000000011640
 Gap [au]:  0.53592393
 ALPHA OCC:   5
 BETA  OCC:   5
 
 ***HARTREE-FOCK ENERGY IN STEP  12 IS        -56.1477065892266154 [AU]
 
 Step comparison  Energy Drift [au]  DIIS error drift  Gradient drift
       11           -1.4211E-14         9.0604E-10       4.1504E-08
 Warning! The energy goes uphill (with respect to previous step).
 
 The SCF iteration has converged.
 An extra iteration will be performed to calculate accurate SCF energy.
 
 ======================================================================
 ITERATION STEP  13
 CPU time [min]:     1.357                   Wall time [min]:     0.031
 

 SCF control                  : diis
 Damping factor/level shift   : 0.000/0.000
 DIIS [start/end/frequency]   :   2 /200 /  1

 Constructing Fock-matrix...
 
 Pipek-Mezey localization...
 Step  Convergence
   1   0.045654520613
   2   0.046770032904
   3   0.000060249553
   4   0.000000143558
   5   0.000000001112
   6   0.000000000007
   7   0.000000000000
 CPU time [min]:     1.380                   Wall time [min]:     0.031
 
 Constructing local fitting domains...
 Maximum number of atoms in fitting domains:    7
 Average number of atoms in fitting domains:    5.6
 
 First step of Coulomb + first step of exchange...
 Exchange contribution is evaluated for MOs 1 to 5.
   3% done.
  14% done.
  25% done.
  43% done.
  55% done.
  69% done.
  84% done.
 100% done.
 Fitting and assembly step of exchange...
 CPU time [min]:     1.444                   Wall time [min]:     0.032
 
 Second step of Coulomb...
   3% done.
  14% done.
  25% done.
  43% done.
  55% done.
  69% done.
  84% done.
 100% done.
 CPU time [min]:     1.459                   Wall time [min]:     0.032
 
 Gradient norm:      9.2925E-08
 RMS of [F,P]:                                         0.00000000456509
 RMS of difference density:                            0.00000000724509
 Gap [au]:  0.53592389
 ALPHA OCC:   5
 BETA  OCC:   5
 
 ***HARTREE-FOCK ENERGY IN STEP  13 IS        -56.1477066008769157 [AU]
 
 Step comparison  Energy Drift [au]  DIIS error drift  Gradient drift
       12            1.1650E-08        -4.4828E-09      -8.9729E-08
 Warning! The DIIS error goes uphill (with respect to previous step).
 Warning! The DIIS error goes uphill (with respect to step  12 ).
 Warning! The gradient goes uphill (with respect to previous step).
 Warning! The gradient goes uphill (with respect to step  12 ).
 ======================================================================
 
 SUCCESS...
 THE SCF ITERATION HAS CONVERGED!
 
                   A   
 FINAL ALPHA OCC:   5
 FINAL BETA  OCC:   5
 
 ***FINAL HARTREE-FOCK ENERGY:        -56.1477066008769157 [AU]
 
 Orbital energies [au]:
      Irrep         Alpha          Beta
    1   A        -15.539164     -15.539164
    2   A         -1.111215      -1.111215
    3   A         -0.615136      -0.615136
    4   A         -0.615103      -0.615103
    5   A         -0.418561      -0.418561
 
    6   A          0.117363       0.117363
    7   A          0.175437       0.175437
    8   A          0.243710       0.243710
    9   A          0.244898       0.244898
   10   A          0.268894       0.268894
   11   A          0.270226       0.270226
   12   A          0.439445       0.439445
   13   A          0.589094       0.589094
   14   A          0.712121       0.712121
   15   A          0.712428       0.712428
   16   A          0.733852       0.733852
   17   A          0.734230       0.734230
   18   A          0.882558       0.882558
   19   A          0.990002       0.990002
   20   A          1.093597       1.093597
   21   A          1.093789       1.093789
   22   A          1.140347       1.140347
   23   A          1.459620       1.459620
   24   A          1.459636       1.459636
   25   A          1.572058       1.572058
   26   A          1.572580       1.572580
   27   A          1.590161       1.590161
   28   A          1.759546       1.759546
   29   A          1.866466       1.866466
   30   A          1.961932       1.961932
   31   A          1.962104       1.962104
   32   A          1.964309       1.964309
   33   A          2.074286       2.074286
   34   A          2.074300       2.074300
   35   A          2.270921       2.270921
   36   A          2.418485       2.418485
   37   A          2.418570       2.418570
   38   A          2.440760       2.440760
   39   A          2.464452       2.464452
   40   A          2.464633       2.464633
   41   A          2.485170       2.485170
   42   A          2.485320       2.485320
   43   A          2.745621       2.745621
   44   A          3.029829       3.029829
   45   A          3.155566       3.155566
   46   A          3.155578       3.155578
   47   A          3.258860       3.258860
   48   A          3.692145       3.692145
   49   A          3.692230       3.692230
   50   A          4.011711       4.011711
   51   A          4.031487       4.031487
   52   A          4.031646       4.031646
   53   A          4.152162       4.152162
   54   A          4.152333       4.152333
   55   A          4.884667       4.884667
   56   A          6.044274       6.044274
   57   A          6.044723       6.044723
   58   A         26.590732      26.590732
 
 RETURNING FROM SCF ALGORITHM
 ======================================================================

 ************************ 2026-02-26 16:43:06 *************************
 Executing integ...

 Allocation of 46.0 Gbytes of memory...
 
 
 Number of atoms:                  8
 Charge:                           0
 Number of electrons:             10
 Number of core electrons:         2
 Spin multiplicity:                1
 
                 Cartesian coordinates [bohr]      Atomic mass [AMU]  Z
   1  N     2.87343284    7.72109067    6.82187243     0.000000       0
   2  H     3.84121308    6.17673805    7.48629888     0.000000       0
   3  H     1.32897883    7.05658759    5.85414160     0.000000       0
   4  H     2.20884945    8.68876012    8.36643752     0.000000       0
   5  N     6.82182577   12.56870435   17.41623676    14.003074       7
   6  H     8.36625160   11.90420748   18.38395135     1.007825       1
   7  H     7.48639849   13.53638789   15.87165107     1.007825       1
   8  H     5.85401804   11.02435588   16.75178750     1.007825       1
 
 This molecule is an asymmetric top.
 
 Point group: C1  
 Computational point group: C1  
 
 Cartesian coordinates in standard orientation [bohr]
   1  N   -11.12092842    0.11375896   -0.12855118
   2  H   -10.83131748   -1.23517393   -1.49221964
   3  H   -12.73565167   -0.37640392    0.82843089
   4  H    -9.64849677   -0.01644668    1.12792329
   5  N     1.17777730    0.00568830    0.11615065
   6  H     2.26939176   -0.60739097   -1.36566931
   7  H     0.46706613    1.74249553   -0.37599117
   8  H    -0.32755414   -1.20939808    0.26002270
 
 Nuclear repulsion energy [au]:         11.785794585729
 
 
 Basis set information:
 
 Maximum angular momentum: g
 Maximum number of contracted Gaussians:   11
 Maximum number of primitive Gaussians:    14
 Spherical harmonic GTOs are used.
 
 
 Conventional basis set:
 
   1  N  aug-cc-pvtz [ 11s 6p 3d 2f | 5s 4p 3d 2f ]
   2  H  aug-cc-pvtz [ 6s 3p 2d | 4s 3p 2d ]
   3  H  aug-cc-pvtz [ 6s 3p 2d | 4s 3p 2d ]
   4  H  aug-cc-pvtz [ 6s 3p 2d | 4s 3p 2d ]
   5  N  aug-cc-pvtz [ 11s 6p 3d 2f | 5s 4p 3d 2f ]
   6  H  aug-cc-pvtz [ 6s 3p 2d | 4s 3p 2d ]
   7  H  aug-cc-pvtz [ 6s 3p 2d | 4s 3p 2d ]
   8  H  aug-cc-pvtz [ 6s 3p 2d | 4s 3p 2d ]
 
 Basis functions:
            1             2             3             4             5             6             7             8             9            10
    0    1N1s          1N2s          1N3s          1N4s          1N5s          1N1pz         1N1py         1N1px         1N2pz         1N2py     
    1    1N2px         1N3pz         1N3py         1N3px         1N4pz         1N4py         1N4px         1N1d-2        1N1d-1        1N1d0     
    2    1N1d+1        1N1d+2        1N2d-2        1N2d-1        1N2d0         1N2d+1        1N2d+2        1N3d-2        1N3d-1        1N3d0     
    3    1N3d+1        1N3d+2        1N1f-3        1N1f-2        1N1f-1        1N1f0         1N1f+1        1N1f+2        1N1f+3        1N2f-3    
    4    1N2f-2        1N2f-1        1N2f0         1N2f+1        1N2f+2        1N2f+3        2H1s          2H2s          2H3s          2H4s      
    5    2H1pz         2H1py         2H1px         2H2pz         2H2py         2H2px         2H3pz         2H3py         2H3px         2H1d-2    
    6    2H1d-1        2H1d0         2H1d+1        2H1d+2        2H2d-2        2H2d-1        2H2d0         2H2d+1        2H2d+2        3H1s      
    7    3H2s          3H3s          3H4s          3H1pz         3H1py         3H1px         3H2pz         3H2py         3H2px         3H3pz     
    8    3H3py         3H3px         3H1d-2        3H1d-1        3H1d0         3H1d+1        3H1d+2        3H2d-2        3H2d-1        3H2d0     
    9    3H2d+1        3H2d+2        4H1s          4H2s          4H3s          4H4s          4H1pz         4H1py         4H1px         4H2pz     
   10    4H2py         4H2px         4H3pz         4H3py         4H3px         4H1d-2        4H1d-1        4H1d0         4H1d+1        4H1d+2    
   11    4H2d-2        4H2d-1        4H2d0         4H2d+1        4H2d+2        5N1s          5N2s          5N3s          5N4s          5N5s      
   12    5N1pz         5N1py         5N1px         5N2pz         5N2py         5N2px         5N3pz         5N3py         5N3px         5N4pz     
   13    5N4py         5N4px         5N1d-2        5N1d-1        5N1d0         5N1d+1        5N1d+2        5N2d-2        5N2d-1        5N2d0     
   14    5N2d+1        5N2d+2        5N3d-2        5N3d-1        5N3d0         5N3d+1        5N3d+2        5N1f-3        5N1f-2        5N1f-1    
   15    5N1f0         5N1f+1        5N1f+2        5N1f+3        5N2f-3        5N2f-2        5N2f-1        5N2f0         5N2f+1        5N2f+2    
   16    5N2f+3        6H1s          6H2s          6H3s          6H4s          6H1pz         6H1py         6H1px         6H2pz         6H2py     
   17    6H2px         6H3pz         6H3py         6H3px         6H1d-2        6H1d-1        6H1d0         6H1d+1        6H1d+2        6H2d-2    
   18    6H2d-1        6H2d0         6H2d+1        6H2d+2        7H1s          7H2s          7H3s          7H4s          7H1pz         7H1py     
   19    7H1px         7H2pz         7H2py         7H2px         7H3pz         7H3py         7H3px         7H1d-2        7H1d-1        7H1d0     
   20    7H1d+1        7H1d+2        7H2d-2        7H2d-1        7H2d0         7H2d+1        7H2d+2        8H1s          8H2s          8H3s      
   21    8H4s          8H1pz         8H1py         8H1px         8H2pz         8H2py         8H2px         8H3pz         8H3py         8H3px     
   22    8H1d-2        8H1d-1        8H1d0         8H1d+1        8H1d+2        8H2d-2        8H2d-1        8H2d0         8H2d+1        8H2d+2    
 
 Maximum number of basis functions per shell:   15
 Total number of basis functions:    230
 
 
 Fitting basis set for the SCF calculation:
 
   1  N  aug-cc-pvtz-ri-jk [ 11s 8p 6d 3f 2g | 11s 8p 6d 3f 2g ]
   2  H  aug-cc-pvtz-ri-jk [ 5s 4p 3d 2f | 5s 4p 3d 2f ]
   3  H  aug-cc-pvtz-ri-jk [ 5s 4p 3d 2f | 5s 4p 3d 2f ]
   4  H  aug-cc-pvtz-ri-jk [ 5s 4p 3d 2f | 5s 4p 3d 2f ]
   5  N  aug-cc-pvtz-ri-jk [ 11s 8p 6d 3f 2g | 11s 8p 6d 3f 2g ]
   6  H  aug-cc-pvtz-ri-jk [ 5s 4p 3d 2f | 5s 4p 3d 2f ]
   7  H  aug-cc-pvtz-ri-jk [ 5s 4p 3d 2f | 5s 4p 3d 2f ]
   8  H  aug-cc-pvtz-ri-jk [ 5s 4p 3d 2f | 5s 4p 3d 2f ]
 
 Basis functions:
            1             2             3             4             5             6             7             8             9            10
    0    1N1s          1N2s          1N3s          1N4s          1N5s          1N6s          1N7s          1N8s          1N9s          1N10s     
    1    1N11s         1N1pz         1N1py         1N1px         1N2pz         1N2py         1N2px         1N3pz         1N3py         1N3px     
    2    1N4pz         1N4py         1N4px         1N5pz         1N5py         1N5px         1N6pz         1N6py         1N6px         1N7pz     
    3    1N7py         1N7px         1N8pz         1N8py         1N8px         1N1d-2        1N1d-1        1N1d0         1N1d+1        1N1d+2    
    4    1N2d-2        1N2d-1        1N2d0         1N2d+1        1N2d+2        1N3d-2        1N3d-1        1N3d0         1N3d+1        1N3d+2    
    5    1N4d-2        1N4d-1        1N4d0         1N4d+1        1N4d+2        1N5d-2        1N5d-1        1N5d0         1N5d+1        1N5d+2    
    6    1N6d-2        1N6d-1        1N6d0         1N6d+1        1N6d+2        1N1f-3        1N1f-2        1N1f-1        1N1f0         1N1f+1    
    7    1N1f+2        1N1f+3        1N2f-3        1N2f-2        1N2f-1        1N2f0         1N2f+1        1N2f+2        1N2f+3        1N3f-3    
    8    1N3f-2        1N3f-1        1N3f0         1N3f+1        1N3f+2        1N3f+3        1N1g-4        1N1g-3        1N1g-2        1N1g-1    
    9    1N1g0         1N1g+1        1N1g+2        1N1g+3        1N1g+4        1N2g-4        1N2g-3        1N2g-2        1N2g-1        1N2g0     
   10    1N2g+1        1N2g+2        1N2g+3        1N2g+4        2H1s          2H2s          2H3s          2H4s          2H5s          2H1pz     
   11    2H1py         2H1px         2H2pz         2H2py         2H2px         2H3pz         2H3py         2H3px         2H4pz         2H4py     
   12    2H4px         2H1d-2        2H1d-1        2H1d0         2H1d+1        2H1d+2        2H2d-2        2H2d-1        2H2d0         2H2d+1    
   13    2H2d+2        2H3d-2        2H3d-1        2H3d0         2H3d+1        2H3d+2        2H1f-3        2H1f-2        2H1f-1        2H1f0     
   14    2H1f+1        2H1f+2        2H1f+3        2H2f-3        2H2f-2        2H2f-1        2H2f0         2H2f+1        2H2f+2        2H2f+3    
   15    3H1s          3H2s          3H3s          3H4s          3H5s          3H1pz         3H1py         3H1px         3H2pz         3H2py     
   16    3H2px         3H3pz         3H3py         3H3px         3H4pz         3H4py         3H4px         3H1d-2        3H1d-1        3H1d0     
   17    3H1d+1        3H1d+2        3H2d-2        3H2d-1        3H2d0         3H2d+1        3H2d+2        3H3d-2        3H3d-1        3H3d0     
   18    3H3d+1        3H3d+2        3H1f-3        3H1f-2        3H1f-1        3H1f0         3H1f+1        3H1f+2        3H1f+3        3H2f-3    
   19    3H2f-2        3H2f-1        3H2f0         3H2f+1        3H2f+2        3H2f+3        4H1s          4H2s          4H3s          4H4s      
   20    4H5s          4H1pz         4H1py         4H1px         4H2pz         4H2py         4H2px         4H3pz         4H3py         4H3px     
   21    4H4pz         4H4py         4H4px         4H1d-2        4H1d-1        4H1d0         4H1d+1        4H1d+2        4H2d-2        4H2d-1    
   22    4H2d0         4H2d+1        4H2d+2        4H3d-2        4H3d-1        4H3d0         4H3d+1        4H3d+2        4H1f-3        4H1f-2    
   23    4H1f-1        4H1f0         4H1f+1        4H1f+2        4H1f+3        4H2f-3        4H2f-2        4H2f-1        4H2f0         4H2f+1    
   24    4H2f+2        4H2f+3        5N1s          5N2s          5N3s          5N4s          5N5s          5N6s          5N7s          5N8s      
   25    5N9s          5N10s         5N11s         5N1pz         5N1py         5N1px         5N2pz         5N2py         5N2px         5N3pz     
   26    5N3py         5N3px         5N4pz         5N4py         5N4px         5N5pz         5N5py         5N5px         5N6pz         5N6py     
   27    5N6px         5N7pz         5N7py         5N7px         5N8pz         5N8py         5N8px         5N1d-2        5N1d-1        5N1d0     
   28    5N1d+1        5N1d+2        5N2d-2        5N2d-1        5N2d0         5N2d+1        5N2d+2        5N3d-2        5N3d-1        5N3d0     
   29    5N3d+1        5N3d+2        5N4d-2        5N4d-1        5N4d0         5N4d+1        5N4d+2        5N5d-2        5N5d-1        5N5d0     
   30    5N5d+1        5N5d+2        5N6d-2        5N6d-1        5N6d0         5N6d+1        5N6d+2        5N1f-3        5N1f-2        5N1f-1    
   31    5N1f0         5N1f+1        5N1f+2        5N1f+3        5N2f-3        5N2f-2        5N2f-1        5N2f0         5N2f+1        5N2f+2    
   32    5N2f+3        5N3f-3        5N3f-2        5N3f-1        5N3f0         5N3f+1        5N3f+2        5N3f+3        5N1g-4        5N1g-3    
   33    5N1g-2        5N1g-1        5N1g0         5N1g+1        5N1g+2        5N1g+3        5N1g+4        5N2g-4        5N2g-3        5N2g-2    
   34    5N2g-1        5N2g0         5N2g+1        5N2g+2        5N2g+3        5N2g+4        6H1s          6H2s          6H3s          6H4s      
   35    6H5s          6H1pz         6H1py         6H1px         6H2pz         6H2py         6H2px         6H3pz         6H3py         6H3px     
   36    6H4pz         6H4py         6H4px         6H1d-2        6H1d-1        6H1d0         6H1d+1        6H1d+2        6H2d-2        6H2d-1    
   37    6H2d0         6H2d+1        6H2d+2        6H3d-2        6H3d-1        6H3d0         6H3d+1        6H3d+2        6H1f-3        6H1f-2    
   38    6H1f-1        6H1f0         6H1f+1        6H1f+2        6H1f+3        6H2f-3        6H2f-2        6H2f-1        6H2f0         6H2f+1    
   39    6H2f+2        6H2f+3        7H1s          7H2s          7H3s          7H4s          7H5s          7H1pz         7H1py         7H1px     
   40    7H2pz         7H2py         7H2px         7H3pz         7H3py         7H3px         7H4pz         7H4py         7H4px         7H1d-2    
   41    7H1d-1        7H1d0         7H1d+1        7H1d+2        7H2d-2        7H2d-1        7H2d0         7H2d+1        7H2d+2        7H3d-2    
   42    7H3d-1        7H3d0         7H3d+1        7H3d+2        7H1f-3        7H1f-2        7H1f-1        7H1f0         7H1f+1        7H1f+2    
   43    7H1f+3        7H2f-3        7H2f-2        7H2f-1        7H2f0         7H2f+1        7H2f+2        7H2f+3        8H1s          8H2s      
   44    8H3s          8H4s          8H5s          8H1pz         8H1py         8H1px         8H2pz         8H2py         8H2px         8H3pz     
   45    8H3py         8H3px         8H4pz         8H4py         8H4px         8H1d-2        8H1d-1        8H1d0         8H1d+1        8H1d+2    
   46    8H2d-2        8H2d-1        8H2d0         8H2d+1        8H2d+2        8H3d-2        8H3d-1        8H3d0         8H3d+1        8H3d+2    
   47    8H1f-3        8H1f-2        8H1f-1        8H1f0         8H1f+1        8H1f+2        8H1f+3        8H2f-3        8H2f-2        8H2f-1    
   48    8H2f0         8H2f+1        8H2f+2        8H2f+3    
 
 Maximum number of basis functions per shell:   30
 Total number of basis functions:    484
 
 
 Fitting basis set for the correlation calculation:
 
   1  N  aug-cc-pvtz-ri [ 9s 7p 6d 4f 2g | 9s 7p 6d 4f 2g ]
   2  H  aug-cc-pvtz-ri [ 5s 4p 3d 2f | 5s 4p 3d 2f ]
   3  H  aug-cc-pvtz-ri [ 5s 4p 3d 2f | 5s 4p 3d 2f ]
   4  H  aug-cc-pvtz-ri [ 5s 4p 3d 2f | 5s 4p 3d 2f ]
   5  N  aug-cc-pvtz-ri [ 9s 7p 6d 4f 2g | 9s 7p 6d 4f 2g ]
   6  H  aug-cc-pvtz-ri [ 5s 4p 3d 2f | 5s 4p 3d 2f ]
   7  H  aug-cc-pvtz-ri [ 5s 4p 3d 2f | 5s 4p 3d 2f ]
   8  H  aug-cc-pvtz-ri [ 5s 4p 3d 2f | 5s 4p 3d 2f ]
 
 Basis functions:
            1             2             3             4             5             6             7             8             9            10
    0    1N1s          1N2s          1N3s          1N4s          1N5s          1N6s          1N7s          1N8s          1N9s          1N1pz     
    1    1N1py         1N1px         1N2pz         1N2py         1N2px         1N3pz         1N3py         1N3px         1N4pz         1N4py     
    2    1N4px         1N5pz         1N5py         1N5px         1N6pz         1N6py         1N6px         1N7pz         1N7py         1N7px     
    3    1N1d-2        1N1d-1        1N1d0         1N1d+1        1N1d+2        1N2d-2        1N2d-1        1N2d0         1N2d+1        1N2d+2    
    4    1N3d-2        1N3d-1        1N3d0         1N3d+1        1N3d+2        1N4d-2        1N4d-1        1N4d0         1N4d+1        1N4d+2    
    5    1N5d-2        1N5d-1        1N5d0         1N5d+1        1N5d+2        1N6d-2        1N6d-1        1N6d0         1N6d+1        1N6d+2    
    6    1N1f-3        1N1f-2        1N1f-1        1N1f0         1N1f+1        1N1f+2        1N1f+3        1N2f-3        1N2f-2        1N2f-1    
    7    1N2f0         1N2f+1        1N2f+2        1N2f+3        1N3f-3        1N3f-2        1N3f-1        1N3f0         1N3f+1        1N3f+2    
    8    1N3f+3        1N4f-3        1N4f-2        1N4f-1        1N4f0         1N4f+1        1N4f+2        1N4f+3        1N1g-4        1N1g-3    
    9    1N1g-2        1N1g-1        1N1g0         1N1g+1        1N1g+2        1N1g+3        1N1g+4        1N2g-4        1N2g-3        1N2g-2    
   10    1N2g-1        1N2g0         1N2g+1        1N2g+2        1N2g+3        1N2g+4        2H1s          2H2s          2H3s          2H4s      
   11    2H5s          2H1pz         2H1py         2H1px         2H2pz         2H2py         2H2px         2H3pz         2H3py         2H3px     
   12    2H4pz         2H4py         2H4px         2H1d-2        2H1d-1        2H1d0         2H1d+1        2H1d+2        2H2d-2        2H2d-1    
   13    2H2d0         2H2d+1        2H2d+2        2H3d-2        2H3d-1        2H3d0         2H3d+1        2H3d+2        2H1f-3        2H1f-2    
   14    2H1f-1        2H1f0         2H1f+1        2H1f+2        2H1f+3        2H2f-3        2H2f-2        2H2f-1        2H2f0         2H2f+1    
   15    2H2f+2        2H2f+3        3H1s          3H2s          3H3s          3H4s          3H5s          3H1pz         3H1py         3H1px     
   16    3H2pz         3H2py         3H2px         3H3pz         3H3py         3H3px         3H4pz         3H4py         3H4px         3H1d-2    
   17    3H1d-1        3H1d0         3H1d+1        3H1d+2        3H2d-2        3H2d-1        3H2d0         3H2d+1        3H2d+2        3H3d-2    
   18    3H3d-1        3H3d0         3H3d+1        3H3d+2        3H1f-3        3H1f-2        3H1f-1        3H1f0         3H1f+1        3H1f+2    
   19    3H1f+3        3H2f-3        3H2f-2        3H2f-1        3H2f0         3H2f+1        3H2f+2        3H2f+3        4H1s          4H2s      
   20    4H3s          4H4s          4H5s          4H1pz         4H1py         4H1px         4H2pz         4H2py         4H2px         4H3pz     
   21    4H3py         4H3px         4H4pz         4H4py         4H4px         4H1d-2        4H1d-1        4H1d0         4H1d+1        4H1d+2    
   22    4H2d-2        4H2d-1        4H2d0         4H2d+1        4H2d+2        4H3d-2        4H3d-1        4H3d0         4H3d+1        4H3d+2    
   23    4H1f-3        4H1f-2        4H1f-1        4H1f0         4H1f+1        4H1f+2        4H1f+3        4H2f-3        4H2f-2        4H2f-1    
   24    4H2f0         4H2f+1        4H2f+2        4H2f+3        5N1s          5N2s          5N3s          5N4s          5N5s          5N6s      
   25    5N7s          5N8s          5N9s          5N1pz         5N1py         5N1px         5N2pz         5N2py         5N2px         5N3pz     
   26    5N3py         5N3px         5N4pz         5N4py         5N4px         5N5pz         5N5py         5N5px         5N6pz         5N6py     
   27    5N6px         5N7pz         5N7py         5N7px         5N1d-2        5N1d-1        5N1d0         5N1d+1        5N1d+2        5N2d-2    
   28    5N2d-1        5N2d0         5N2d+1        5N2d+2        5N3d-2        5N3d-1        5N3d0         5N3d+1        5N3d+2        5N4d-2    
   29    5N4d-1        5N4d0         5N4d+1        5N4d+2        5N5d-2        5N5d-1        5N5d0         5N5d+1        5N5d+2        5N6d-2    
   30    5N6d-1        5N6d0         5N6d+1        5N6d+2        5N1f-3        5N1f-2        5N1f-1        5N1f0         5N1f+1        5N1f+2    
   31    5N1f+3        5N2f-3        5N2f-2        5N2f-1        5N2f0         5N2f+1        5N2f+2        5N2f+3        5N3f-3        5N3f-2    
   32    5N3f-1        5N3f0         5N3f+1        5N3f+2        5N3f+3        5N4f-3        5N4f-2        5N4f-1        5N4f0         5N4f+1    
   33    5N4f+2        5N4f+3        5N1g-4        5N1g-3        5N1g-2        5N1g-1        5N1g0         5N1g+1        5N1g+2        5N1g+3    
   34    5N1g+4        5N2g-4        5N2g-3        5N2g-2        5N2g-1        5N2g0         5N2g+1        5N2g+2        5N2g+3        5N2g+4    
   35    6H1s          6H2s          6H3s          6H4s          6H5s          6H1pz         6H1py         6H1px         6H2pz         6H2py     
   36    6H2px         6H3pz         6H3py         6H3px         6H4pz         6H4py         6H4px         6H1d-2        6H1d-1        6H1d0     
   37    6H1d+1        6H1d+2        6H2d-2        6H2d-1        6H2d0         6H2d+1        6H2d+2        6H3d-2        6H3d-1        6H3d0     
   38    6H3d+1        6H3d+2        6H1f-3        6H1f-2        6H1f-1        6H1f0         6H1f+1        6H1f+2        6H1f+3        6H2f-3    
   39    6H2f-2        6H2f-1        6H2f0         6H2f+1        6H2f+2        6H2f+3        7H1s          7H2s          7H3s          7H4s      
   40    7H5s          7H1pz         7H1py         7H1px         7H2pz         7H2py         7H2px         7H3pz         7H3py         7H3px     
   41    7H4pz         7H4py         7H4px         7H1d-2        7H1d-1        7H1d0         7H1d+1        7H1d+2        7H2d-2        7H2d-1    
   42    7H2d0         7H2d+1        7H2d+2        7H3d-2        7H3d-1        7H3d0         7H3d+1        7H3d+2        7H1f-3        7H1f-2    
   43    7H1f-1        7H1f0         7H1f+1        7H1f+2        7H1f+3        7H2f-3        7H2f-2        7H2f-1        7H2f0         7H2f+1    
   44    7H2f+2        7H2f+3        8H1s          8H2s          8H3s          8H4s          8H5s          8H1pz         8H1py         8H1px     
   45    8H2pz         8H2py         8H2px         8H3pz         8H3py         8H3px         8H4pz         8H4py         8H4px         8H1d-2    
   46    8H1d-1        8H1d0         8H1d+1        8H1d+2        8H2d-2        8H2d-1        8H2d0         8H2d+1        8H2d+2        8H3d-2    
   47    8H3d-1        8H3d0         8H3d+1        8H3d+2        8H1f-3        8H1f-2        8H1f-1        8H1f0         8H1f+1        8H1f+2    
   48    8H1f+3        8H2f-3        8H2f-2        8H2f-1        8H2f0         8H2f+1        8H2f+2        8H2f+3    
 
 Maximum number of basis functions per shell:   30
 Total number of basis functions:    488
 
 
 Old basis set for SCF restart
 
   1  N  def2-svp [ 7s 4p 1d | 3s 2p 1d ]
   2  H  def2-svp [ 4s 1p | 2s 1p ]
   3  H  def2-svp [ 4s 1p | 2s 1p ]
   4  H  def2-svp [ 4s 1p | 2s 1p ]
   5  N  def2-svp [ 7s 4p 1d | 3s 2p 1d ]
   6  H  def2-svp [ 4s 1p | 2s 1p ]
   7  H  def2-svp [ 4s 1p | 2s 1p ]
   8  H  def2-svp [ 4s 1p | 2s 1p ]
 
 Basis functions:
            1             2             3             4             5             6             7             8             9            10
    0    1N1s          1N2s          1N3s          1N1pz         1N1py         1N1px         1N2pz         1N2py         1N2px         1N1d-2    
    1    1N1d-1        1N1d0         1N1d+1        1N1d+2        2H1s          2H2s          2H1pz         2H1py         2H1px         3H1s      
    2    3H2s          3H1pz         3H1py         3H1px         4H1s          4H2s          4H1pz         4H1py         4H1px         5N1s      
    3    5N2s          5N3s          5N1pz         5N1py         5N1px         5N2pz         5N2py         5N2px         5N1d-2        5N1d-1    
    4    5N1d0         5N1d+1        5N1d+2        6H1s          6H2s          6H1pz         6H1py         6H1px         7H1s          7H2s      
    5    7H1pz         7H1py         7H1px         8H1s          8H2s          8H1pz         8H1py         8H1px     
 
 Maximum number of basis functions per shell:   30
 Total number of basis functions:     58
 
 
 Character table for point group C1:
 
          E  
    A     1
 
 Number of basis functions per irrep:
    A     230
 
 
 Calculation of overlap integrals...
 CPU time [min]:     0.156                   Wall time [min]:     0.005
 
 Calculation of the square root of the overlap matrix...
 Minimum eigenvalue of the overlap matrix: 0.258822E-03
 CPU time [min]:     0.181                   Wall time [min]:     0.005
 
 Calculation of kinetic energy integrals...
 CPU time [min]:     0.182                   Wall time [min]:     0.005
 Calculation of dipole moment integrals...
 CPU time [min]:     0.184                   Wall time [min]:     0.006
 Calculation of nuclear attraction integrals...
 CPU time [min]:     0.186                   Wall time [min]:     0.006
 Calculation of overlap integrals...
 CPU time [min]:     0.187                   Wall time [min]:     0.006
 
 Calculation of prescreening integrals...
 CPU time [min]:     0.345                   Wall time [min]:     0.008
 
 Calculation of two-center Coulomb integrals...
   1% done.
  12% done.
  25% done.
  40% done.
  51% done.
  66% done.
  77% done.
  88% done.
 100% done.
 CPU time [min]:     0.357                   Wall time [min]:     0.008
 
 Cholesky decomposition of the two-center matrix...
 Reciprocal of the condition number:  0.181182E-04
 CPU time [min]:     0.369                   Wall time [min]:     0.008
 

 ************************ 2026-02-26 16:43:07 *************************
 Executing scf...

 @scfsetup: integrals calculated directly
            mrcc/integ direct run
 @scfsetup: calculating on full matrices
            not using symmetry adapted basis
 @scfsetup: diis switched on
 @scfsetup: number of steps to extrapolate from  10
 @scfsetup: tolerance in energy deviation    0.100000E-07
            tolerance in density deviation    0.100000E-08
 @scfsetup: maximum number of iterations: 200
 @scfsetup: restricted closed shell hf calc
 @scfsetup: restarting scf from SCFDENSITIES file
 @scfsetup: occupation set:
            from initial orbitals
 @scfsetup: Parameter-set for SCF acceleration: normal
 @scfsetup: diis runs from iteration:   2
 @scfsetup: diis runs to iteration: 200
 @scfsetup: diis runs in every iteration
 @scfsetup: diiswatch is disabled                   
 @scfsetup: diis dtol criteria to switch on:      0.0000E+00
           (or the iteration number below is reached)
 @scfsetup: static damping scheme
            iteration step criteria to turn damping off: 3
 @scfsetup: dynamic level shifting
            tolarance in HOMO-LUMO gap:  0.200
            tolarance in density deviation:     0.0000E+00
            iteration step criteria to turn level shifting off: 8
 Allocation of 46.0 Gbytes of memory...
 ======================================================================
 ITERATION STEP   1
 CPU time [min]:     0.044                   Wall time [min]:     0.009
 

 SCF control                  : initial
 Damping factor/level shift   : 0.000/0.200
 DIIS [start/end/frequency]   :   2 /200 /  1

 Constructing Fock-matrix...
 Inverse square root: The matrix is not positive definite!
 
 Pipek-Mezey localization...
 Step  Convergence
   1   0.950825061582
   2   0.082868340449
   3   0.001642070498
   4   0.000067328293
   5   0.000003209031
   6   0.000000130723
   7   0.000000010085
   8   0.000000000572
 CPU time [min]:     0.073                   Wall time [min]:     0.009
 
 Constructing local fitting domains...
 Maximum number of atoms in fitting domains:    7
 Average number of atoms in fitting domains:    5.4
 
 First step of Coulomb + first step of exchange...
 Exchange contribution is evaluated for MOs 1 to 5.
   1% done.
  13% done.
  25% done.
  41% done.
  52% done.
  64% done.
  81% done.
  92% done.
 100% done.
 Fitting and assembly step of exchange...
 CPU time [min]:     0.203                   Wall time [min]:     0.011
 
 Second step of Coulomb...
   1% done.
  13% done.
  25% done.
  41% done.
  52% done.
  64% done.
  81% done.
  92% done.
 100% done.
 CPU time [min]:     0.242                   Wall time [min]:     0.012
 
 Gradient norm:      3.8743E-01
 RMS of [F,P]:                                         0.00339045476881
 RMS of difference density:                            0.00614505500184
 Gap [au]:  0.44566381
 ALPHA OCC:   5
 BETA  OCC:   5
 
 ***HARTREE-FOCK ENERGY IN STEP   1 IS        -56.1969005072796506 [AU]
 ======================================================================
 ITERATION STEP   2
 CPU time [min]:     0.271                   Wall time [min]:     0.012
 

 SCF control                  : diis
 Damping factor/level shift   : 0.000/0.000
 DIIS [start/end/frequency]   :   2 /200 /  1

 Constructing Fock-matrix...
 
 Pipek-Mezey localization...
 Step  Convergence
   1   0.020364683125
   2   0.026664312604
   3   0.001348146394
   4   0.000126018981
   5   0.000001809689
   6   0.000000031983
   7   0.000000000558
 CPU time [min]:     0.295                   Wall time [min]:     0.013
 
 Constructing local fitting domains...
 Maximum number of atoms in fitting domains:    7
 Average number of atoms in fitting domains:    6.6
 
 First step of Coulomb + first step of exchange...
 Exchange contribution is evaluated for MOs 1 to 5.
   1% done.
  13% done.
  25% done.
  41% done.
  52% done.
  64% done.
  81% done.
  92% done.
 100% done.
 Fitting and assembly step of exchange...
 CPU time [min]:     0.424                   Wall time [min]:     0.015
 
 Second step of Coulomb...
   1% done.
  13% done.
  25% done.
  41% done.
  52% done.
  64% done.
  81% done.
  92% done.
 100% done.
 CPU time [min]:     0.462                   Wall time [min]:     0.016
 
 Gradient norm:      2.7504E-02
 DIIS is running in this iteration step.
 RMS of [F,P]:                                         0.00026371727406
 RMS of difference density:                            0.00068658944759
 Gap [au]:  0.44833849
 ALPHA OCC:   5
 BETA  OCC:   5
 
 ***HARTREE-FOCK ENERGY IN STEP   2 IS        -56.2178207501162888 [AU]
 
 Step comparison  Energy Drift [au]  DIIS error drift  Gradient drift
        1            2.0920E-02         3.1267E-03       3.5993E-01
        2            5.6218E+01         1.0000E-09       3.5993E-01
 ======================================================================
 ITERATION STEP   3
 CPU time [min]:     0.488                   Wall time [min]:     0.016
 

 SCF control                  : diis
 Damping factor/level shift   : 0.000/0.000
 DIIS [start/end/frequency]   :   2 /200 /  1

 Constructing Fock-matrix...
 
 Pipek-Mezey localization...
 Step  Convergence
   1   0.020189452114
   2   0.026575928410
   3   0.001550803604
   4   0.000154679460
   5   0.000010107444
   6   0.000000621036
   7   0.000000018539
   8   0.000000001802
 CPU time [min]:     0.511                   Wall time [min]:     0.016
 
 Constructing local fitting domains...
 Local fitting domains are unchanged.
 
 First step of Coulomb + first step of exchange...
 Exchange contribution is evaluated for MOs 1 to 5.
   1% done.
  13% done.
  25% done.
  41% done.
  52% done.
  64% done.
  81% done.
  92% done.
 100% done.
 Fitting and assembly step of exchange...
 CPU time [min]:     0.635                   Wall time [min]:     0.018
 
 Second step of Coulomb...
   1% done.
  13% done.
  25% done.
  41% done.
  52% done.
  64% done.
  81% done.
  92% done.
 100% done.
 CPU time [min]:     0.674                   Wall time [min]:     0.019
 
 Gradient norm:      9.2289E-03
 DIIS is running in this iteration step.
 RMS of [F,P]:                                         0.00008264312800
 RMS of difference density:                            0.00019122657001
 Gap [au]:  0.45048772
 ALPHA OCC:   5
 BETA  OCC:   5
 
 ***HARTREE-FOCK ENERGY IN STEP   3 IS        -56.2187460203061988 [AU]
 
 Step comparison  Energy Drift [au]  DIIS error drift  Gradient drift
        2            9.2527E-04         1.8107E-04       1.8275E-02
 ======================================================================
 ITERATION STEP   4
 CPU time [min]:     0.699                   Wall time [min]:     0.019
 

 SCF control                  : diis
 Damping factor/level shift   : 0.000/0.000
 DIIS [start/end/frequency]   :   2 /200 /  1

 Constructing Fock-matrix...
 
 Pipek-Mezey localization...
 Step  Convergence
   1   0.020196300822
   2   0.026685481454
   3   0.001385603150
   4   0.000126652643
   5   0.000003868016
   6   0.000000359315
   7   0.000000012242
   8   0.000000001291
 CPU time [min]:     0.722                   Wall time [min]:     0.020
 
 Constructing local fitting domains...
 Local fitting domains are unchanged.
 
 First step of Coulomb + first step of exchange...
 Exchange contribution is evaluated for MOs 1 to 5.
   1% done.
  13% done.
  25% done.
  41% done.
  52% done.
  64% done.
  81% done.
  92% done.
 100% done.
 Fitting and assembly step of exchange...
 CPU time [min]:     0.848                   Wall time [min]:     0.022
 
 Second step of Coulomb...
   1% done.
  13% done.
  25% done.
  41% done.
  52% done.
  64% done.
  81% done.
  92% done.
 100% done.
 CPU time [min]:     0.887                   Wall time [min]:     0.022
 
 Gradient norm:      3.2232E-03
 DIIS is running in this iteration step.
 RMS of [F,P]:                                         0.00002999798149
 RMS of difference density:                            0.00004497771922
 Gap [au]:  0.44844040
 ALPHA OCC:   5
 BETA  OCC:   5
 
 ***HARTREE-FOCK ENERGY IN STEP   4 IS        -56.2188874305172206 [AU]
 
 Step comparison  Energy Drift [au]  DIIS error drift  Gradient drift
        3            1.4141E-04         5.2645E-05       6.0057E-03
 ======================================================================
 ITERATION STEP   5
 CPU time [min]:     0.912                   Wall time [min]:     0.023
 

 SCF control                  : diis
 Damping factor/level shift   : 0.000/0.000
 DIIS [start/end/frequency]   :   2 /200 /  1

 Constructing Fock-matrix...
 
 Pipek-Mezey localization...
 Step  Convergence
   1   0.030101632507
   2   0.025090866993
   3   0.001205462023
   4   0.000083457911
   5   0.000007928278
   6   0.000000762588
   7   0.000000081241
   8   0.000000008512
   9   0.000000000920
  10   0.000000000096
  11   0.000000000010
  12   0.000000000001
  13   0.000000000000
 CPU time [min]:     0.936                   Wall time [min]:     0.023
 
 Constructing local fitting domains...
 Local fitting domains are unchanged.
 
 First step of Coulomb + first step of exchange...
 Exchange contribution is evaluated for MOs 1 to 5.
   1% done.
  13% done.
  25% done.
  41% done.
  52% done.
  64% done.
  81% done.
  92% done.
 100% done.
 Fitting and assembly step of exchange...
 CPU time [min]:     1.061                   Wall time [min]:     0.025
 
 Second step of Coulomb...
   1% done.
  13% done.
  25% done.
  41% done.
  52% done.
  64% done.
  81% done.
  92% done.
 100% done.
 CPU time [min]:     1.101                   Wall time [min]:     0.026
 
 Gradient norm:      1.3856E-03
 DIIS is running in this iteration step.
 RMS of [F,P]:                                         0.00001362534890
 RMS of difference density:                            0.00002675705322
 Gap [au]:  0.44852117
 ALPHA OCC:   5
 BETA  OCC:   5
 
 ***HARTREE-FOCK ENERGY IN STEP   5 IS        -56.2189015038966389 [AU]
 
 Step comparison  Energy Drift [au]  DIIS error drift  Gradient drift
        4            1.4073E-05         1.6373E-05       1.8375E-03
 ======================================================================
 ITERATION STEP   6
 CPU time [min]:     1.125                   Wall time [min]:     0.026
 

 SCF control                  : diis
 Damping factor/level shift   : 0.000/0.000
 DIIS [start/end/frequency]   :   2 /200 /  1

 Constructing Fock-matrix...
 
 Pipek-Mezey localization...
 Step  Convergence
   1   0.040690315737
   2   0.036658620419
   3   0.001595731783
   4   0.000102580523
   5   0.000009258324
   6   0.000000863067
   7   0.000000090221
   8   0.000000009452
   9   0.000000001002
  10   0.000000000107
  11   0.000000000011
  12   0.000000000001
  13   0.000000000000
 CPU time [min]:     1.149                   Wall time [min]:     0.027
 
 Constructing local fitting domains...
 Local fitting domains are unchanged.
 
 First step of Coulomb + first step of exchange...
 Exchange contribution is evaluated for MOs 1 to 5.
   1% done.
  13% done.
  25% done.
  41% done.
  52% done.
  64% done.
  81% done.
  92% done.
 100% done.
 Fitting and assembly step of exchange...
 CPU time [min]:     1.274                   Wall time [min]:     0.029
 
 Second step of Coulomb...
   1% done.
  13% done.
  25% done.
  41% done.
  52% done.
  64% done.
  81% done.
  92% done.
 100% done.
 CPU time [min]:     1.313                   Wall time [min]:     0.029
 
 Gradient norm:      2.0480E-04
 DIIS is running in this iteration step.
 RMS of [F,P]:                                         0.00000193514555
 RMS of difference density:                            0.00000411020080
 Gap [au]:  0.44838840
 ALPHA OCC:   5
 BETA  OCC:   5
 
 ***HARTREE-FOCK ENERGY IN STEP   6 IS        -56.2189043060489837 [AU]
 
 Step comparison  Energy Drift [au]  DIIS error drift  Gradient drift
        5            2.8022E-06         1.1690E-05       1.1809E-03
 ======================================================================
 ITERATION STEP   7
 CPU time [min]:     1.339                   Wall time [min]:     0.030
 

 SCF control                  : diis
 Damping factor/level shift   : 0.000/0.000
 DIIS [start/end/frequency]   :   2 /200 /  1

 Constructing Fock-matrix...
 
 Pipek-Mezey localization...
 Step  Convergence
   1   0.041035418981
   2   0.036868499450
   3   0.001183897820
   4   0.000089861802
   5   0.000008378364
   6   0.000000835677
   7   0.000000086903
   8   0.000000009281
   9   0.000000000993
  10   0.000000000106
  11   0.000000000011
  12   0.000000000001
  13   0.000000000000
 CPU time [min]:     1.362                   Wall time [min]:     0.030
 
 Constructing local fitting domains...
 Local fitting domains are unchanged.
 
 First step of Coulomb + first step of exchange...
 Exchange contribution is evaluated for MOs 1 to 5.
   1% done.
  13% done.
  25% done.
  41% done.
  52% done.
  64% done.
  81% done.
  92% done.
 100% done.
 Fitting and assembly step of exchange...
 CPU time [min]:     1.489                   Wall time [min]:     0.032
 
 Second step of Coulomb...
   1% done.
  13% done.
  25% done.
  41% done.
  52% done.
  64% done.
  81% done.
  92% done.
 100% done.
 CPU time [min]:     1.527                   Wall time [min]:     0.033
 
 Gradient norm:      3.5811E-05
 DIIS is running in this iteration step.
 RMS of [F,P]:                                         0.00000031156387
 RMS of difference density:                            0.00000090895600
 Gap [au]:  0.44838544
 ALPHA OCC:   5
 BETA  OCC:   5
 
 ***HARTREE-FOCK ENERGY IN STEP   7 IS        -56.2189043555529722 [AU]
 
 Step comparison  Energy Drift [au]  DIIS error drift  Gradient drift
[...]
  174    3     0.999584        5    6    7
  175    2     0.998383        5    6
  176    2     0.999511        5    6
  177    2     0.996914        5    6
  178    2     0.996450        5    6
  179    1     0.992375        6
  180    1     0.991872        6
  181    1     0.983253        6
  182    1     0.993169        6
  183    1     0.991989        6
  184    2     0.998187        5    6
  185    3     0.999688        5    6    7
  186    2     0.999207        5    6
  187    2     0.987485        6    8
  188    2     0.984107        6    8
  189    2     0.999676        5    7
  190    2     0.999740        5    7
  191    2     0.999220        5    7
  192    1     0.988486        7
  193    1     0.989698        7
  194    1     0.995600        7
  195    1     0.992019        7
  196    3     0.999959        5    6    7
  197    2     0.998577        5    7
  198    3     0.982444        6    7    8
  199    2     0.998750        5    7
  200    2     0.995969        5    7
  201    2     0.997778        5    7
  202    1     0.986761        7
  203    1     0.985025        7
  204    1     0.995927        7
  205    1     0.996297        7
  206    1     0.988505        7
  207    3     0.998365        5    7    8
  208    2     0.998554        5    7
  209    2     0.990322        6    7
  210    2     0.985602        6    7
  211    2     0.981497        7    8
  212    2     0.999676        5    8
  213    2     0.999740        5    8
  214    2     0.999219        5    8
  215    1     0.988487        8
  216    1     0.988700        8
  217    1     0.993942        8
  218    1     0.994630        8
  219    2     0.998868        5    8
  220    2     0.998364        5    8
  221    2     0.999105        5    8
  222    2     0.998152        5    8
  223    2     0.996643        5    8
  224    2     0.997905        5    8
  225    1     0.994385        8
  226    1     0.992059        8
  227    1     0.997838        8
  228    1     0.986841        8
  229    1     0.981429        8
  230    2     0.981686        7    8
  231    3     0.981280        6    7    8
  232    2     0.999777        5    8
  233    3     0.999954        5    6    8
  234    4     1.000000        5    6    7    8
 CPU time [min]:     0.045                   Wall time [min]:     0.003
 
 C1 point group was detected
 
 Constructing orbital domains...
 CPU time [min]:     0.063                   Wall time [min]:     0.004
 
 Dimensions of the primary domains:     Minimum / Average / Maximum
 
 Number of atoms in domain:                   4       4.0         4
 Number of atoms in occ BP domain:            1       1.8         2
 Number of atoms in PAO BP domain:            1       1.3         4
 Number of atomic orbitals:                 115     115.0       115
 Number of PAOs:                             46      63.2        69
 
 Prescreening pairs...
 CPU time [min]:     0.084                   Wall time [min]:     0.004
 
 Occupied LMO domain definition with Boughton-Pulay completeness:    0.9999900000
 
   MO  Natoms  Completeness   Atoms
    1    4     0.999999        5    6    7    8
    2    4     1.000000        5    6    7    8
    3    4     1.000000        5    6    7    8
    4    4     1.000000        5    6    7    8
 
 Executing the Boughton-Pulay algorithm...
  with occ MO completeness:    0.9850000000
 
   MO  Natoms  Completeness   Atoms
    1    1     0.999329        5
    2    2     0.999777        5    6
    3    2     0.999777        5    8
    4    2     0.999777        5    7
 CPU time [min]:     0.097                   Wall time [min]:     0.004
 
 Dimensions of the occupied LMO domains:  Minimum / Average / Maximum
 
 Number of atoms in domain:                   4       4.0         4
 Number of atomic orbitals:                 115     115.0       115
 
 Total number of pairs:   6
 Number of distant pairs: 0 (0.0%)
 Sum of multipole based pair energies:      0.0000000000
 
 CPU time [min]:     0.100                   Wall time [min]:     0.004
 Number of strong pairs: 6 (100.0%)
 chtol from minp:   1.000000000000000E-006
        2.06 MB memory is used for domain independent quantities
 
 Calculating the contribution of occupied LMOs...
    using local fitting domains
 
 MO:     1
 Number of atoms in domain:       8
    Number of atoms in PCD:       8
 Number of atomic orbitals:     230
 Number of atoms for local DF:    8
 Number of fitting functions:   488 (100.00%)
 Number of occupied orbitals:     4
 Number of virtual  orbitals:   225
 Number of Cholesky vectors:     10
 MP2 energy in ED [au]:          -0.061797603673
 Number of occupied LNOs:         4 (100.00%)
 Number of virtual  LNOs:        86  (38.22%)
 Number of Cholesky vectors:      8
 MP2 energy in LIS [au]:         -0.061784698405
 Correction for frozen LNO [au]: -0.000012905268     (0.021%)
 Number of NAFs:                243  (49.80%)
 CPU time [min]:     2.132                   Wall time [min]:     0.043
 

 Direct DF-CCSD(T) calculation
 
 Convergence criterion:  1.0E-05
 
 Number of occupied/virtual/auxiliary orbitals:     4    86   243
     66.50 MB is the minimal memory requirement for (T)
     30.12 MB is the minimal memory requirement for CCSD
 
 MP2 correlation energy [au]:       -0.240018792922
 
 LMP2 domain correlation energy contribution [au]:       -0.061785241659
 
 CPU time [min]:     2.218                   Wall time [min]:     0.044
 
 
 Starting CCSD iterations...
 
                     Residual norm       Correlation Energy
 Iteration  1        0.146075083488       -0.246235575695
 Iteration  2        0.034124380323       -0.251370165761
 Iteration  3        0.011276659286       -0.252281760237
 Iteration  4        0.002452554078       -0.252242038242
 Iteration  5        0.000768344242       -0.252263660259
 Iteration  6        0.000232252962       -0.252263804311
 Iteration  7        0.000061007710       -0.252262921989
 
 CCSD iteration has converged in  7 steps.
      243.84 MB memory was utilized by CCSD
 
 T1 diagnostic:      8.456E-03            D1 diagnostic:      1.850E-02
 
 T1 contribution [au]:                         0.000000000000
 CCSD correlation energy [au]:                -0.064139670373
 
 CPU time [min]:     2.604                   Wall time [min]:     0.050
 
 Calculation of (T) correction...
 
 Laplace threshold, nquadmin:  1.00E-03   4
 Number of quadrature points:    4
 
       66.96 MB memory is utilized for (T)

 0%       25%       50%       75%       100%
 |---------|---------|---------|---------| 
 
 (T) correction [au]:                   -0.002340842678
 CCSD(T) correlation energy [au]:       -0.066480513051
 
 CPU time [min]:     2.763                   Wall time [min]:     0.053
 
 MO:     2
 Number of atoms in domain:       8
    Number of atoms in PCD:       8
 Number of atomic orbitals:     230
 Number of atoms for local DF:    8
 Number of fitting functions:   488 (100.00%)
 Number of occupied orbitals:     4
 Number of virtual  orbitals:   225
 Number of Cholesky vectors:     10
 MP2 energy in ED [au]:          -0.059752258814
 Number of occupied LNOs:         4 (100.00%)
 Number of virtual  LNOs:        84  (37.33%)
 Number of Cholesky vectors:      9
 MP2 energy in LIS [au]:         -0.059739032163
 Correction for frozen LNO [au]: -0.000013226651     (0.022%)
 Number of NAFs:                242  (49.59%)
 CPU time [min]:     4.382                   Wall time [min]:     0.084
 

 Direct DF-CCSD(T) calculation
 
 Convergence criterion:  1.0E-05
 
 Number of occupied/virtual/auxiliary orbitals:     4    84   242
     62.65 MB is the minimal memory requirement for (T)
     28.79 MB is the minimal memory requirement for CCSD
 
 MP2 correlation energy [au]:       -0.239874051049
 
 LMP2 domain correlation energy contribution [au]:       -0.059739327767
 
 CPU time [min]:     4.438                   Wall time [min]:     0.085
 
 
 Starting CCSD iterations...
 
                     Residual norm       Correlation Energy
 Iteration  1        0.146291961434       -0.246065401602
 Iteration  2        0.033966598641       -0.251258841850
 Iteration  3        0.011046409648       -0.252091503380
 Iteration  4        0.002287229562       -0.252070081379
 Iteration  5        0.000623883202       -0.252091272857
 Iteration  6        0.000198334957       -0.252091055590
 Iteration  7        0.000050693293       -0.252090629256
 
 CCSD iteration has converged in  7 steps.
      223.49 MB memory was utilized by CCSD
 
 T1 diagnostic:      8.175E-03            D1 diagnostic:      1.749E-02
 
 T1 contribution [au]:                         0.000000000000
 CCSD correlation energy [au]:                -0.062910958740
 
 CPU time [min]:     4.810                   Wall time [min]:     0.091
 
 Calculation of (T) correction...
 
 Laplace threshold, nquadmin:  1.00E-03   4
 Number of quadrature points:    4
 
       63.09 MB memory is utilized for (T)

 0%       25%       50%       75%       100%
 |---------|---------|---------|---------| 
 
 (T) correction [au]:                   -0.002038530964
 CCSD(T) correlation energy [au]:       -0.064949489704
 
 CPU time [min]:     4.962                   Wall time [min]:     0.094
 
 MO:     3
 Number of atoms in domain:       8
    Number of atoms in PCD:       8
 Number of atomic orbitals:     230
 Number of atoms for local DF:    8
 Number of fitting functions:   488 (100.00%)
 Number of occupied orbitals:     4
 Number of virtual  orbitals:   225
 Number of Cholesky vectors:     10
 MP2 energy in ED [au]:          -0.059752367362
 Number of occupied LNOs:         4 (100.00%)
 Number of virtual  LNOs:        84  (37.33%)
 Number of Cholesky vectors:      9
 MP2 energy in LIS [au]:         -0.059739189670
 Correction for frozen LNO [au]: -0.000013177692     (0.022%)
 Number of NAFs:                242  (49.59%)
 CPU time [min]:     6.557                   Wall time [min]:     0.124
 

 Direct DF-CCSD(T) calculation
 
 Convergence criterion:  1.0E-05
 
 Number of occupied/virtual/auxiliary orbitals:     4    84   242
     62.65 MB is the minimal memory requirement for (T)
     28.79 MB is the minimal memory requirement for CCSD
 
 MP2 correlation energy [au]:       -0.239874163811
 
 LMP2 domain correlation energy contribution [au]:       -0.059739485753
 
 CPU time [min]:     6.614                   Wall time [min]:     0.125
 
 
 Starting CCSD iterations...
 
                     Residual norm       Correlation Energy
 Iteration  1        0.146301791796       -0.246065315812
 Iteration  2        0.033969717018       -0.251258745381
 Iteration  3        0.011046514616       -0.252091414643
 Iteration  4        0.002287098628       -0.252069959192
 Iteration  5        0.000623610643       -0.252091166251
 Iteration  6        0.000198261152       -0.252090941370
 Iteration  7        0.000050658676       -0.252090518252
 
 CCSD iteration has converged in  7 steps.
      223.49 MB memory was utilized by CCSD
 
 T1 diagnostic:      8.175E-03            D1 diagnostic:      1.749E-02
 
 T1 contribution [au]:                         0.000000000000
 CCSD correlation energy [au]:                -0.062911017242
 
 CPU time [min]:     6.978                   Wall time [min]:     0.131
 
 Calculation of (T) correction...
 
 Laplace threshold, nquadmin:  1.00E-03   4
 Number of quadrature points:    4
 
       63.09 MB memory is utilized for (T)

 0%       25%       50%       75%       100%
 |---------|---------|---------|---------| 
 
 (T) correction [au]:                   -0.002038521356
 CCSD(T) correlation energy [au]:       -0.064949538598
 
 CPU time [min]:     7.132                   Wall time [min]:     0.133
 
 MO:     4
 Number of atoms in domain:       8
    Number of atoms in PCD:       8
 Number of atomic orbitals:     230
 Number of atoms for local DF:    8
 Number of fitting functions:   488 (100.00%)
 Number of occupied orbitals:     4
 Number of virtual  orbitals:   225
 Number of Cholesky vectors:     10
 MP2 energy in ED [au]:          -0.059753503818
 Number of occupied LNOs:         4 (100.00%)
 Number of virtual  LNOs:        84  (37.33%)
 Number of Cholesky vectors:      9
 MP2 energy in LIS [au]:         -0.059740300000
 Correction for frozen LNO [au]: -0.000013203818     (0.022%)
 Number of NAFs:                242  (49.59%)
 CPU time [min]:     8.749                   Wall time [min]:     0.163
 

 Direct DF-CCSD(T) calculation
 
 Convergence criterion:  1.0E-05
 
 Number of occupied/virtual/auxiliary orbitals:     4    84   242
     62.65 MB is the minimal memory requirement for (T)
     28.79 MB is the minimal memory requirement for CCSD
 
 MP2 correlation energy [au]:       -0.239873599436
 
 LMP2 domain correlation energy contribution [au]:       -0.059740599968
 
 CPU time [min]:     8.806                   Wall time [min]:     0.164
 
 
 Starting CCSD iterations...
 
                     Residual norm       Correlation Energy
 Iteration  1        0.146334755600       -0.246064933788
 Iteration  2        0.033980787231       -0.251258263999
 Iteration  3        0.011047442639       -0.252091144616
 Iteration  4        0.002287288375       -0.252069564964
 Iteration  5        0.000623894161       -0.252090795400
 Iteration  6        0.000198347637       -0.252090593280
 Iteration  7        0.000050688433       -0.252090162955
 
 CCSD iteration has converged in  7 steps.
      223.49 MB memory was utilized by CCSD
 
 T1 diagnostic:      8.175E-03            D1 diagnostic:      1.749E-02
 
 T1 contribution [au]:                         0.000000000000
 CCSD correlation energy [au]:                -0.062912515674
 
 CPU time [min]:     9.175                   Wall time [min]:     0.170
 
 Calculation of (T) correction...
 
 Laplace threshold, nquadmin:  1.00E-03   4
 Number of quadrature points:    4
 
       63.09 MB memory is utilized for (T)

 0%       25%       50%       75%       100%
 |---------|---------|---------|---------| 
 
 (T) correction [au]:                   -0.002038612320
 CCSD(T) correlation energy [au]:       -0.064951127993
 
 CPU time [min]:     9.334                   Wall time [min]:     0.173
 
 **********************************************************************
 Dimensions of the extended domains:    Minimum / Average / Maximum
 
 Number of atoms in domain:                   8       8.0         8
 Number of atomic orbitals:                 230     230.0       230
 Number of fitting functions:               488     488.0       488
 Number of occupied localized MOs:            4       4.0         4
 Number of PAOs:                            225     225.0       225
 Number of occupied LNOs:                     4       4.0         4
 Number of virtual  LNOs:                    84      84.5        86
 Number of NAFs:                            242     242.2       243
 
 **********************************************************************
 Distant (and weak) pair contributions, corrections
 
 Sum of pair energies [au]:                     0.000000000000    (0.000%)
 Sum of energy corrections [au]:               -0.000052513429    (0.022%)
 Pair energies + LNO corrections [au]:         -0.000052513429
 Sum of LMP2 contributions [au]:               -0.241055733667
 
 **********************************************************************
  Time of manipulations in the EDs:      max CPU/Wall [s]  all CPU/Wall [min]
 
 PD construction & multipole pair E       5.92     0.12     0.10     0.00
 Construct MO basis of the ED             1.98     0.03     0.12     0.00
 (mu,nu|P) evaluation & trf 2 (ai|P)      6.23     0.10     0.37     0.01
 Evaluate MP2 energy of the ED            0.35     0.01     0.02     0.00
 Transformations to the LNO basis         1.68     0.03     0.11     0.00
 Build W_PQ (Jai or Jpi part)             0.70     0.02     0.02     0.00
 Evaluate MP2 energy of the LIS           0.15     0.00     0.01     0.00
 (mu,nu|P) evaluation & trf 2 J(abQ)     94.61     1.73     5.16     0.09
 Total of the above for all EDs         105.70     1.91     5.81     0.10
 
 **********************************************************************
 Maximum memory requirement [MB]:       
 
 PD construction & multipole pair E          3.7
 AO integral evaluation in the EDs        1094.5
 (mu,nu|P) evaluation & trf 2 (aI|P)      1121.7
 Evaluate MP2 energy in the EDs             24.5
 Transformation to the LNO basis            10.6
 (mu,nu|P) to Jab transformation          1101.7
 Evaluate MP2 energy in the LIS             14.4
 Minimum requirement for LIS CCSD           30.1
 Actually allocated  for LIS CCSD          243.8
 Minimum requirement for LIS (T)            66.5
 Actually allocated  for LIS (T)            67.0
 
 ======================================================================
 ======================================================================
 
 
 
 ======================================================================
 ======================================================================
 
 Final local CC results:
 
 Minimum number of correlated electrons:         8       (100.0%)
 Maximum number of correlated electrons:         8       (100.0%)
 Average number of correlated electrons:         8.0     (100.0%)
 Minimum number of correlated orbitals:         88       ( 38.4%)
 Maximum number of correlated orbitals:         90       ( 39.3%)
 Average number of correlated orbitals:         88.5     ( 38.6%)
 
 CPU time for integral calculations [min]:                  0.377
 Wall time for integral calculations [min]:                 0.009
 
 CPU time for SCF calculation [min]:                        3.015
 Wall time for SCF calculation [min]:                       0.101
 
 CPU time for orbital localization [min]:                   0.222
 Wall time for orbital localization [min]:                  0.039
 
 CPU time for integral transformations [min]:               7.075
 Wall time for integral transformations [min]:              0.135
 
 Reference energy [au]:                                   -56.218904358846
 
 LMP2 correlation energy [au]:                             -0.241055733667
 Total LMP2 energy [au]:                                  -56.459960092513
 
 Total MP2 correction for dropped NAFs [au]:                0.000001434908
 Total MP2 correction [au]:                                -0.000051078521
 
 CPU time for CCSD calculations [min]:                      1.683
 Total CPU time for CCSD [min]:                            12.372
 Wall time for CCSD calculations [min]:                     0.027
 Total wall time for CCSD [min]:                            0.311
 
 CCSD correlation energy [au]:                             -0.252874162028
 Total CCSD energy [au]:                                  -56.471778520874
 CCSD correlation energy + 0.5 MP2 corrections [au]:       -0.252899701289
 Total LNO-CCSD energy with MP2 corrections [au]:         -56.471804060134
 
 CPU time for (T) corrections [min]:                        0.624
 Total CPU time for CCSD(T) [min]:                         12.996
 Wall time for (T) corrections [min]:                       0.011
 Total wall time for CCSD(T) [min]:                         0.322
 
 Total (T) correlation energy contribution [au]:           -0.008456507318
 Total (T) correlation energy+0.5 MP2 correction [au]:     -0.008482046578
 CCSD(T) correlation energy [au]:                          -0.261330669346
 Total CCSD(T) energy [au]:                               -56.480235028192
 CCSD(T) correlation energy + MP2 corrections [au]:        -0.261381747867
 Total LNO-CCSD(T) energy with MP2 corrections [au]:      -56.480286106713
 
 ======================================================================
 ======================================================================
 
 ************************ 2026-02-26 16:43:26 *************************
                      Normal termination of mrcc.
 **********************************************************************
