 **********************************************************************
                          MRCC program system
 **********************************************************************
 
                              Written by
     Mihaly Kallay, Peter R. Nagy, David Mester, Laszlo Gyevi-Nagy,
        Jozsef Csoka, P. Bernat Szabo, Zoltan Rolik, Gyula Samu,
     Jozsef Csontos, Bence Hegely, Adam Ganyecz, Istvan Ladjanszki,
       Lorant Szegedy, Bence Ladoczki, Klara Petrov, Mate Farkas,
                    Pal D. Mezei, and Reka A. Horvath
 
        Department of Physical Chemistry and Materials Science
            Budapest University of Technology and Economics
                  Budapest P.O.Box 91, H-1521 Hungary
 
                              www.mrcc.hu
 
                     Release date: August 28, 2023

 ************************ 2026-02-26 23:39:10 *************************
 Executing minp...

 Reading input from MINP...
 
 Input file:
 
charge=0
mult=1
calc=DF-MP2
basis=aug-cc-pVTZ
symm=off
verbosity=3
unit=angs
scfalg=locfit1
scfmaxit=200
scftol=8
basis_sm=def2-SVP
scfiguess=small
mem=46GB
ghost=serialno
5-12

geom=xyz
12

N      3.60995473454    6.65107191074    4.08577558721
H      4.42722968319    6.29943531034    4.59786809656
H      3.96163147006    7.16314798552    3.26841604077
H      3.09781293566    5.83383789254    3.73416418411
N      3.60995473454    6.65107191074    9.21627558721
H      4.42722968319    6.29943531034    9.72836809656
H      3.96163147006    7.16314798552    8.39891604077
H      3.09781293566    5.83383789254    8.86466418411
N      6.65105517382    4.08582522547    3.60997942338
H      7.16318242072    3.26858901465    3.96157875919
H      5.83376531255    3.73418533747    3.09787832187
H      6.29937278831    4.59789384265    4.42732807018
 
 
 Checking keyword combinations...
 
 Keywords:
 
 active=none
 agrid=ld0006-ld0590
 agrid_pssp=ld0006-ld0194
 agrid_pssp_sm=ld0006-ld0074
 basis=aug-cc-pvtz
 basis_sm=def2-svp
 basopt=off
 bfbasis=none
 bfgsmem=10
 bfgstol=1.0d-3
 boysalg=jacobi
 bpcompo=0.985
 bpcompv=0.98
 bpdfo=0.985
 bpocc=0.985
 bppdo=0.985
 bppdv=0.98
 bpedo=0.985
 bpedv=0.98
 calc=mp2
 ccmaxit=50
 ccprog=mrcc
 ccsdalg=disk
 ccsdmkl=seq
 ccsdrest=off
 ccsdthreads=2
 cctol=6
 charge=0
 cialg=disk
 ciguess=off
 cmpgrp=auto
 comprest=off
 coord_sys=ric
 core=frozen
 corembed=off
 csapprox=off
 cvs=off
 dboc=off
 delocsomofact=
 dendec=cholesky
 dens=0
 denscorr=0
 dfalg=lineq
 dfbasis_cab=none
 dfbasis_cor=auto
 dfbasis_scf=auto
 dfbasis_scf_sm=auto
 dfintran=drpa
 dft=off
 dhexc=adc(2)
 diag=david
 docc=
 domrad=10.d0
 drpaalg=fit
 dual=off
 dual_df=off
 ecp=auto
 edisp=off
 edisp_embed=off
 embed=off
 epairestfact=off
 epairscale=1.d0
 etemp=300
 epert=none
 eps=
 espcharge=off
 excrad=1.0
 excrad_fin=0.100000000D-02
 fitting=coulomb
 fmm=off
 fmmord=8
 fnonorb=
 freq=off
 gamma=1.1d0
 gauss=spher
 geom=xyz
 gopt=off
 ghost=serialno
 gtol=7
 grdens=off
 grid=auto
 grid_sm=auto
 gridbatch_cos=2000
 grtol=10
 guido_ct=off
 hamilton=dc
 iface=none
 intalg=auto
 ip_ea=off
 itol=12
 laptol=1.d-2
 lccoporder=trffirst
 lcorthr=normal
 lccrest=off
 ldfgrad_tol=8
 lmp2dens=on
 lnoepso=0.d0
 lnoepsv=1e-6
 localcc=off
 localcorrsymm=off
 locintrf=disk
 mact=
 maxact=off
 maxdim=200
 maxex=0
 maxmicroit=100
 mcscfiguess=hf
 mem=46gb
 mmprog=
 molden=on
 mpitasks=1
 mulmet=0
 mult=1
 nab=off
 nacto=0
 nactv=0
 naf_amp=3.16d-3
 naf_cor=off
 naf_f12=off
 naf_scf=off
 nafalg=albe
 nafdens=off
 naftyp=
 nchol=auto
 ndeps=1e-3
 nstate=1
 nsing=0
 nto=off
 ntrip=0
 num_grad=off
 occ=
 occri=off
 oniom=off
 oniom_eechg=off
 oniom_pcm=off
 oniom_qcorr=off
 optalg=
 optmaxit=50
 optetol=1e-6
 optex=0
 optgtol=1e-4
 optstol=1e-3
 orblocc=off
 orbloce=off
 orbloco=off
 orblocv=off
 orblocguess=cholesky
 osveps=1e-3
 ovirt=off
 ovltol=1e-7
 ovosnorb=80.0
 pao_subsys_tol=1e-3
 pcm=off
 popul=off
 pressure=100000
 pssp=off
 ptfreq=0.0
 ptthreads=2
 qmreg=
 qmmm=off
 qro=off
 qscf=off
 redcost_exc=off
 redcost_tddft=off
 refdet=none
 rest=0
 rgrid=log3
 rism=off
 rohfcore=semicanonical
 rohftype=semicanonical
 scfalg=locfit1
 scf_conv=auto
 scfdamp=0.0d0
 scfdamp_mode=off
 scfdamp_end=200
 scfdamp_dampstep=0.d0
 scfdamp_dtol=0.0d0
 scfdamp_maxfact=0.0d0
 scfdamp_minfact=0.0d0
 scfdiis=on
 scfdiis_dtol=0.0d0
 scfdiis_end=200
 scfdiis_start=2
 scfdiis_step=1
 scfdiis_watch=off
 scfdiis_wrange=10
 scfdiis_wlimit=5
 scfdiis_delmax=2
 scfdtol=9
 scfext=10
 scfguessdens=
 scfiguess=small
 scfloc=pm
 scflshift=0.20
 scflshift_end=8
 scflshift_dtol=0.0
 scflshift_gaptol=0.20
 scfmaxit=200
 scftype=
 scftol=8
 scspe=1.d0
 scsph=1.d0
 scsps=1.2d0
 scsps_t=1.2d0
 scspt=0.33333333333333
 scspt_t=0.33333333333333
 scspv=1.d0
 spairtol=1e-4
 sqmprog=
 subminp=top
 symm=0
 talg=occ
 temp=298.15
 test=off
 theodore=off
 tlmo=0.999
 tpao=0.94
 tprint=off
 uncontract=off
 unit=angs
 usedisk=2
 verbosity=3
 wpairtol=0.100000000E-05
 
 Calculating integrals for small-basis SCF...

 ************************ 2026-02-26 23:39:10 *************************
 Executing integ...

 Allocation of 46.0 Gbytes of memory...
 
 
 Number of atoms:                 12
 Charge:                           0
 Number of electrons:             10
 Number of core electrons:         2
 Spin multiplicity:                1
 
                 Cartesian coordinates [bohr]      Atomic mass [AMU]  Z
   1  N     6.82182577   12.56870435    7.72099687    14.003074       7
   2  H     8.36625160   11.90420748    8.68871146     1.007825       1
   3  H     7.48639849   13.53638789    6.17641118     1.007825       1
   4  H     5.85401804   11.02435588    7.05654762     1.007825       1
   5  N     6.82182577   12.56870435   17.41623676     0.000000       0
   6  H     8.36625160   11.90420748   18.38395135     0.000000       0
   7  H     7.48639849   13.53638789   15.87165107     0.000000       0
   8  H     5.85401804   11.02435588   16.75178750     0.000000       0
   9  N    12.56867272    7.72109067    6.82187243     0.000000       0
  10  H    13.53645296    6.17673805    7.48629888     0.000000       0
  11  H    11.02421872    7.05658759    5.85414160     0.000000       0
  12  H    11.90408933    8.68876012    8.36643752     0.000000       0
 
 This molecule is an asymmetric top.
 
 Point group: C1  
 Computational point group: C1  
 
 Cartesian coordinates in standard orientation [bohr]
   1  N    -0.48108419    0.85990607   -0.00936746
   2  H     0.07773394   -0.92798325   -0.51380062
   3  H    -1.95028859    1.35173213   -1.17699703
   4  H    -1.19274584    0.75092057    1.79197002
   5  N     8.93601995   -1.44569658   -0.00463782
   6  H     9.49483808   -3.23358591   -0.50907098
   7  H     7.46681555   -0.95387053   -1.17226739
   8  H     8.22435830   -1.55468209    1.79669966
   9  N    -3.14219847   -6.22854092   -0.08951153
  10  H    -2.91118332   -8.07783345    0.44885194
  11  H    -3.90783149   -5.28324189    1.42165401
  12  H    -1.37185407   -5.49329832   -0.38789982
 
 Nuclear repulsion energy [au]:         11.785794585729
 
Warning: for H atoms in the case of dfbasis_scf=auto the AO basis is set as dfbasis_scf instead of def2-qzvp(pd)-ri-jk because the AO basis is larger. Set the dfbasis_scf=def2-qzvp(pd)-ri-jk in MINP if that is desired.
 
 
 Basis set information:
 
 Maximum angular momentum: g
 Maximum number of contracted Gaussians:   10
 Maximum number of primitive Gaussians:    14
 Spherical harmonic GTOs are used.
 
 
 Conventional basis set:
 
   1  N  def2-svp [ 7s 4p 1d | 3s 2p 1d ]
   2  H  def2-svp [ 4s 1p | 2s 1p ]
   3  H  def2-svp [ 4s 1p | 2s 1p ]
   4  H  def2-svp [ 4s 1p | 2s 1p ]
   5  N  def2-svp [ 7s 4p 1d | 3s 2p 1d ]
   6  H  def2-svp [ 4s 1p | 2s 1p ]
   7  H  def2-svp [ 4s 1p | 2s 1p ]
   8  H  def2-svp [ 4s 1p | 2s 1p ]
   9  N  def2-svp [ 7s 4p 1d | 3s 2p 1d ]
  10  H  def2-svp [ 4s 1p | 2s 1p ]
  11  H  def2-svp [ 4s 1p | 2s 1p ]
  12  H  def2-svp [ 4s 1p | 2s 1p ]
 
 Basis functions:
            1             2             3             4             5             6             7             8             9            10
    0    1N1s          1N2s          1N3s          1N1pz         1N1py         1N1px         1N2pz         1N2py         1N2px         1N1d-2    
    1    1N1d-1        1N1d0         1N1d+1        1N1d+2        2H1s          2H2s          2H1pz         2H1py         2H1px         3H1s      
    2    3H2s          3H1pz         3H1py         3H1px         4H1s          4H2s          4H1pz         4H1py         4H1px         5N1s      
    3    5N2s          5N3s          5N1pz         5N1py         5N1px         5N2pz         5N2py         5N2px         5N1d-2        5N1d-1    
    4    5N1d0         5N1d+1        5N1d+2        6H1s          6H2s          6H1pz         6H1py         6H1px         7H1s          7H2s      
    5    7H1pz         7H1py         7H1px         8H1s          8H2s          8H1pz         8H1py         8H1px         9N1s          9N2s      
    6    9N3s          9N1pz         9N1py         9N1px         9N2pz         9N2py         9N2px         9N1d-2        9N1d-1        9N1d0     
    7    9N1d+1        9N1d+2       10H1s         10H2s         10H1pz        10H1py        10H1px        11H1s         11H2s         11H1pz     
    8   11H1py        11H1px        12H1s         12H2s         12H1pz        12H1py        12H1px     
 
 Maximum number of basis functions per shell:    6
 Total number of basis functions:     87
 
 
 Fitting basis set for the SCF calculation:
 
   1  N  def2-qzvpp-ri-jk [ 14s 10p 6d 2f 1g | 10s 8p 4d 2f 1g ]
   2  H  def2-qzvpp [ 7s 3p 2d 1f | 4s 3p 2d 1f ]
   3  H  def2-qzvpp [ 7s 3p 2d 1f | 4s 3p 2d 1f ]
   4  H  def2-qzvpp [ 7s 3p 2d 1f | 4s 3p 2d 1f ]
   5  N  def2-qzvpp-ri-jk [ 14s 10p 6d 2f 1g | 10s 8p 4d 2f 1g ]
   6  H  def2-qzvpp [ 7s 3p 2d 1f | 4s 3p 2d 1f ]
   7  H  def2-qzvpp [ 7s 3p 2d 1f | 4s 3p 2d 1f ]
   8  H  def2-qzvpp [ 7s 3p 2d 1f | 4s 3p 2d 1f ]
   9  N  def2-qzvpp-ri-jk [ 14s 10p 6d 2f 1g | 10s 8p 4d 2f 1g ]
  10  H  def2-qzvpp [ 7s 3p 2d 1f | 4s 3p 2d 1f ]
  11  H  def2-qzvpp [ 7s 3p 2d 1f | 4s 3p 2d 1f ]
  12  H  def2-qzvpp [ 7s 3p 2d 1f | 4s 3p 2d 1f ]
 
 Basis functions:
            1             2             3             4             5             6             7             8             9            10
    0    1N1s          1N2s          1N3s          1N4s          1N5s          1N6s          1N7s          1N8s          1N9s          1N10s     
    1    1N1pz         1N1py         1N1px         1N2pz         1N2py         1N2px         1N3pz         1N3py         1N3px         1N4pz     
    2    1N4py         1N4px         1N5pz         1N5py         1N5px         1N6pz         1N6py         1N6px         1N7pz         1N7py     
    3    1N7px         1N8pz         1N8py         1N8px         1N1d-2        1N1d-1        1N1d0         1N1d+1        1N1d+2        1N2d-2    
    4    1N2d-1        1N2d0         1N2d+1        1N2d+2        1N3d-2        1N3d-1        1N3d0         1N3d+1        1N3d+2        1N4d-2    
    5    1N4d-1        1N4d0         1N4d+1        1N4d+2        1N1f-3        1N1f-2        1N1f-1        1N1f0         1N1f+1        1N1f+2    
    6    1N1f+3        1N2f-3        1N2f-2        1N2f-1        1N2f0         1N2f+1        1N2f+2        1N2f+3        1N1g-4        1N1g-3    
    7    1N1g-2        1N1g-1        1N1g0         1N1g+1        1N1g+2        1N1g+3        1N1g+4        2H1s          2H2s          2H3s      
    8    2H4s          2H1pz         2H1py         2H1px         2H2pz         2H2py         2H2px         2H3pz         2H3py         2H3px     
    9    2H1d-2        2H1d-1        2H1d0         2H1d+1        2H1d+2        2H2d-2        2H2d-1        2H2d0         2H2d+1        2H2d+2    
   10    2H1f-3        2H1f-2        2H1f-1        2H1f0         2H1f+1        2H1f+2        2H1f+3        3H1s          3H2s          3H3s      
   11    3H4s          3H1pz         3H1py         3H1px         3H2pz         3H2py         3H2px         3H3pz         3H3py         3H3px     
   12    3H1d-2        3H1d-1        3H1d0         3H1d+1        3H1d+2        3H2d-2        3H2d-1        3H2d0         3H2d+1        3H2d+2    
   13    3H1f-3        3H1f-2        3H1f-1        3H1f0         3H1f+1        3H1f+2        3H1f+3        4H1s          4H2s          4H3s      
   14    4H4s          4H1pz         4H1py         4H1px         4H2pz         4H2py         4H2px         4H3pz         4H3py         4H3px     
   15    4H1d-2        4H1d-1        4H1d0         4H1d+1        4H1d+2        4H2d-2        4H2d-1        4H2d0         4H2d+1        4H2d+2    
   16    4H1f-3        4H1f-2        4H1f-1        4H1f0         4H1f+1        4H1f+2        4H1f+3        5N1s          5N2s          5N3s      
   17    5N4s          5N5s          5N6s          5N7s          5N8s          5N9s          5N10s         5N1pz         5N1py         5N1px     
   18    5N2pz         5N2py         5N2px         5N3pz         5N3py         5N3px         5N4pz         5N4py         5N4px         5N5pz     
   19    5N5py         5N5px         5N6pz         5N6py         5N6px         5N7pz         5N7py         5N7px         5N8pz         5N8py     
   20    5N8px         5N1d-2        5N1d-1        5N1d0         5N1d+1        5N1d+2        5N2d-2        5N2d-1        5N2d0         5N2d+1    
   21    5N2d+2        5N3d-2        5N3d-1        5N3d0         5N3d+1        5N3d+2        5N4d-2        5N4d-1        5N4d0         5N4d+1    
   22    5N4d+2        5N1f-3        5N1f-2        5N1f-1        5N1f0         5N1f+1        5N1f+2        5N1f+3        5N2f-3        5N2f-2    
   23    5N2f-1        5N2f0         5N2f+1        5N2f+2        5N2f+3        5N1g-4        5N1g-3        5N1g-2        5N1g-1        5N1g0     
   24    5N1g+1        5N1g+2        5N1g+3        5N1g+4        6H1s          6H2s          6H3s          6H4s          6H1pz         6H1py     
   25    6H1px         6H2pz         6H2py         6H2px         6H3pz         6H3py         6H3px         6H1d-2        6H1d-1        6H1d0     
   26    6H1d+1        6H1d+2        6H2d-2        6H2d-1        6H2d0         6H2d+1        6H2d+2        6H1f-3        6H1f-2        6H1f-1    
   27    6H1f0         6H1f+1        6H1f+2        6H1f+3        7H1s          7H2s          7H3s          7H4s          7H1pz         7H1py     
   28    7H1px         7H2pz         7H2py         7H2px         7H3pz         7H3py         7H3px         7H1d-2        7H1d-1        7H1d0     
   29    7H1d+1        7H1d+2        7H2d-2        7H2d-1        7H2d0         7H2d+1        7H2d+2        7H1f-3        7H1f-2        7H1f-1    
   30    7H1f0         7H1f+1        7H1f+2        7H1f+3        8H1s          8H2s          8H3s          8H4s          8H1pz         8H1py     
   31    8H1px         8H2pz         8H2py         8H2px         8H3pz         8H3py         8H3px         8H1d-2        8H1d-1        8H1d0     
   32    8H1d+1        8H1d+2        8H2d-2        8H2d-1        8H2d0         8H2d+1        8H2d+2        8H1f-3        8H1f-2        8H1f-1    
   33    8H1f0         8H1f+1        8H1f+2        8H1f+3        9N1s          9N2s          9N3s          9N4s          9N5s          9N6s      
   34    9N7s          9N8s          9N9s          9N10s         9N1pz         9N1py         9N1px         9N2pz         9N2py         9N2px     
   35    9N3pz         9N3py         9N3px         9N4pz         9N4py         9N4px         9N5pz         9N5py         9N5px         9N6pz     
   36    9N6py         9N6px         9N7pz         9N7py         9N7px         9N8pz         9N8py         9N8px         9N1d-2        9N1d-1    
   37    9N1d0         9N1d+1        9N1d+2        9N2d-2        9N2d-1        9N2d0         9N2d+1        9N2d+2        9N3d-2        9N3d-1    
   38    9N3d0         9N3d+1        9N3d+2        9N4d-2        9N4d-1        9N4d0         9N4d+1        9N4d+2        9N1f-3        9N1f-2    
   39    9N1f-1        9N1f0         9N1f+1        9N1f+2        9N1f+3        9N2f-3        9N2f-2        9N2f-1        9N2f0         9N2f+1    
   40    9N2f+2        9N2f+3        9N1g-4        9N1g-3        9N1g-2        9N1g-1        9N1g0         9N1g+1        9N1g+2        9N1g+3    
   41    9N1g+4       10H1s         10H2s         10H3s         10H4s         10H1pz        10H1py        10H1px        10H2pz        10H2py     
   42   10H2px        10H3pz        10H3py        10H3px        10H1d-2       10H1d-1       10H1d0        10H1d+1       10H1d+2       10H2d-2    
   43   10H2d-1       10H2d0        10H2d+1       10H2d+2       10H1f-3       10H1f-2       10H1f-1       10H1f0        10H1f+1       10H1f+2    
   44   10H1f+3       11H1s         11H2s         11H3s         11H4s         11H1pz        11H1py        11H1px        11H2pz        11H2py     
   45   11H2px        11H3pz        11H3py        11H3px        11H1d-2       11H1d-1       11H1d0        11H1d+1       11H1d+2       11H2d-2    
   46   11H2d-1       11H2d0        11H2d+1       11H2d+2       11H1f-3       11H1f-2       11H1f-1       11H1f0        11H1f+1       11H1f+2    
   47   11H1f+3       12H1s         12H2s         12H3s         12H4s         12H1pz        12H1py        12H1px        12H2pz        12H2py     
   48   12H2px        12H3pz        12H3py        12H3px        12H1d-2       12H1d-1       12H1d0        12H1d+1       12H1d+2       12H2d-2    
   49   12H2d-1       12H2d0        12H2d+1       12H2d+2       12H1f-3       12H1f-2       12H1f-1       12H1f0        12H1f+1       12H1f+2    
   50   12H1f+3    
 
 Maximum number of basis functions per shell:   24
 Total number of basis functions:    501
 
 
 Initializing the SAD routines for the initial guess...
 Checking the files required for the initial guess...
 Atomic density files have been found for the atoms with the following serial numbers:
  
 Atomic density files have not been found for the atoms with the following serial numbers:
  1 2 3 4
 Generating SCFDENSITIES.N.def2-svp.0
 Generating SCFDENSITIES.H.def2-svp.0
 CPU time [min]:     0.218                   Wall time [min]:     0.136
 
 Character table for point group C1:
 
          E  
    A     1
 
 Number of basis functions per irrep:
    A      87
 
 
 Calculation of overlap integrals...
 CPU time [min]:     0.223                   Wall time [min]:     0.136
 
 Calculation of the square root of the overlap matrix...
 Minimum eigenvalue of the overlap matrix: 0.238174E-01
 CPU time [min]:     0.235                   Wall time [min]:     0.136
 
 Calculation of kinetic energy integrals...
 CPU time [min]:     0.236                   Wall time [min]:     0.136
 Calculation of dipole moment integrals...
 CPU time [min]:     0.236                   Wall time [min]:     0.136
 Calculation of nuclear attraction integrals...
 CPU time [min]:     0.238                   Wall time [min]:     0.136
 
 Calculation of prescreening integrals...
 CPU time [min]:     0.257                   Wall time [min]:     0.137
 
 Calculation of two-center Coulomb integrals...
   1% done.
  13% done.
  24% done.
  35% done.
  47% done.
  60% done.
  72% done.
  86% done.
  97% done.
 100% done.
 CPU time [min]:     0.268                   Wall time [min]:     0.137
 
 Cholesky decomposition of the two-center matrix...
 Reciprocal of the condition number:  0.808225E-05
 CPU time [min]:     0.296                   Wall time [min]:     0.137
 
 
 Running small-basis SCF...

 ************************ 2026-02-26 23:39:19 *************************
 Executing scf...

 @scfsetup: integrals calculated directly
            mrcc/integ direct run
 @scfsetup: calculating on full matrices
            not using symmetry adapted basis
 @scfsetup: diis switched on
 @scfsetup: number of steps to extrapolate from  10
 @scfsetup: tolerance in energy deviation    0.100000E-07
            tolerance in density deviation    0.100000E-08
 @scfsetup: maximum number of iterations: 200
 @scfsetup: restricted closed shell hf calc
 @scfsetup: starting scf from superposition of atomic densities
 @scfsetup: occupation set:
            from initial orbitals
 @scfsetup: Parameter-set for SCF acceleration: normal
 @scfsetup: diis runs from iteration:   2
 @scfsetup: diis runs to iteration: 200
 @scfsetup: diis runs in every iteration
 @scfsetup: diiswatch is disabled                   
 @scfsetup: diis dtol criteria to switch on:      0.0000E+00
           (or the iteration number below is reached)
 @scfsetup: static damping scheme
            iteration step criteria to turn damping off: 3
 @scfsetup: dynamic level shifting
            tolarance in HOMO-LUMO gap:  0.200
            tolarance in density deviation:     0.0000E+00
            iteration step criteria to turn level shifting off: 8
 Allocation of 46.0 Gbytes of memory...
 ======================================================================
 ITERATION STEP   1
 CPU time [min]:     0.038                   Wall time [min]:     0.008
 

 SCF control                  : initial
 Damping factor/level shift   : 0.000/0.200
 DIIS [start/end/frequency]   :   2 /200 /  1

 Constructing Fock-matrix...
 
 Pipek-Mezey localization...
 Step  Convergence
   1   0.879768645303
   2   0.002132531914
   3   0.000007814671
   4   0.000000044333
   5   0.000000000219
 CPU time [min]:     0.063                   Wall time [min]:     0.009
 
 Constructing local fitting domains...
 Maximum number of atoms in fitting domains:    5
 Average number of atoms in fitting domains:    4.2
 
 First step of Coulomb + first step of exchange...
 Exchange contribution is evaluated for MOs 1 to 5.
   1% done.
  14% done.
  25% done.
  37% done.
  49% done.
  60% done.
  72% done.
  83% done.
 100% done.
 Fitting and assembly step of exchange...
 CPU time [min]:     0.146                   Wall time [min]:     0.010
 
 Second step of Coulomb...
   1% done.
  14% done.
  25% done.
  37% done.
  49% done.
  60% done.
  72% done.
  83% done.
 100% done.
 CPU time [min]:     0.171                   Wall time [min]:     0.011
 
 Gradient norm:      2.3664E+00
 RMS of [F,P]:                                         0.02510048160692
 RMS of difference density:                            0.00912528558946
 Gap [au]:  0.64844219
 ALPHA OCC:   5
 BETA  OCC:   5
 
 ***HARTREE-FOCK ENERGY IN STEP   1 IS        -55.8598435848599593 [AU]
 ======================================================================
 ITERATION STEP   2
 CPU time [min]:     0.183                   Wall time [min]:     0.011
 

 SCF control                  : diis
 Damping factor/level shift   : 0.000/0.000
 DIIS [start/end/frequency]   :   2 /200 /  1

 Constructing Fock-matrix...
 
 Pipek-Mezey localization...
 Step  Convergence
   1   0.010439039643
   2   0.009958625627
   3   0.000000770068
   4   0.000000000577
 CPU time [min]:     0.206                   Wall time [min]:     0.011
 
 Constructing local fitting domains...
 Maximum number of atoms in fitting domains:    5
 Average number of atoms in fitting domains:    4.2
 
 First step of Coulomb + first step of exchange...
 Exchange contribution is evaluated for MOs 1 to 5.
   1% done.
  14% done.
  25% done.
  37% done.
  49% done.
  60% done.
  72% done.
  83% done.
 100% done.
 Fitting and assembly step of exchange...
 CPU time [min]:     0.280                   Wall time [min]:     0.012
 
 Second step of Coulomb...
   1% done.
  14% done.
  25% done.
  37% done.
  49% done.
  60% done.
  72% done.
  83% done.
 100% done.
 CPU time [min]:     0.304                   Wall time [min]:     0.013
 
 Gradient norm:      2.9923E-01
 DIIS is running in this iteration step.
 RMS of [F,P]:                                         0.00536097321928
 RMS of difference density:                            0.00416811220643
 Gap [au]:  0.47148351
 ALPHA OCC:   5
 BETA  OCC:   5
 
 ***HARTREE-FOCK ENERGY IN STEP   2 IS        -56.1235524196316860 [AU]
 
 Step comparison  Energy Drift [au]  DIIS error drift  Gradient drift
        1            2.6371E-01         1.9740E-02       2.0672E+00
        2            5.6124E+01         1.0000E-09       2.0672E+00
 ======================================================================
 ITERATION STEP   3
 CPU time [min]:     0.320                   Wall time [min]:     0.013
 

 SCF control                  : diis
 Damping factor/level shift   : 0.000/0.000
 DIIS [start/end/frequency]   :   2 /200 /  1

 Constructing Fock-matrix...
 
 Pipek-Mezey localization...
 Step  Convergence
   1   0.020183790446
   2   0.020276038213
   3   0.000001761546
   4   0.000000000179
 CPU time [min]:     0.343                   Wall time [min]:     0.013
 
 Constructing local fitting domains...
 Local fitting domains are unchanged.
 
 First step of Coulomb + first step of exchange...
 Exchange contribution is evaluated for MOs 1 to 5.
   1% done.
  14% done.
  25% done.
  37% done.
  49% done.
  60% done.
  72% done.
  83% done.
 100% done.
 Fitting and assembly step of exchange...
 CPU time [min]:     0.413                   Wall time [min]:     0.015
 
 Second step of Coulomb...
   1% done.
  14% done.
  25% done.
  37% done.
  49% done.
  60% done.
  72% done.
  83% done.
 100% done.
 CPU time [min]:     0.437                   Wall time [min]:     0.015
 
 Gradient norm:      1.1722E-01
 DIIS is running in this iteration step.
 RMS of [F,P]:                                         0.00256555337690
 RMS of difference density:                            0.00127762403138
 Gap [au]:  0.53249870
 ALPHA OCC:   5
 BETA  OCC:   5
 
 ***HARTREE-FOCK ENERGY IN STEP   3 IS        -56.1428371266673025 [AU]
 
 Step comparison  Energy Drift [au]  DIIS error drift  Gradient drift
        2            1.9285E-02         2.7954E-03       1.8201E-01
 ======================================================================
 ITERATION STEP   4
 CPU time [min]:     0.453                   Wall time [min]:     0.015
 

 SCF control                  : diis
 Damping factor/level shift   : 0.000/0.000
 DIIS [start/end/frequency]   :   2 /200 /  1

 Constructing Fock-matrix...
 
 Pipek-Mezey localization...
 Step  Convergence
   1   0.019964136006
   2   0.020274423763
   3   0.000001687601
   4   0.000000000181
 CPU time [min]:     0.476                   Wall time [min]:     0.016
 
 Constructing local fitting domains...
 Local fitting domains are unchanged.
 
 First step of Coulomb + first step of exchange...
 Exchange contribution is evaluated for MOs 1 to 5.
   1% done.
  14% done.
  25% done.
  37% done.
  49% done.
  60% done.
  72% done.
  83% done.
 100% done.
 Fitting and assembly step of exchange...
 CPU time [min]:     0.547                   Wall time [min]:     0.017
 
 Second step of Coulomb...
   1% done.
  14% done.
  25% done.
  37% done.
  49% done.
  60% done.
  72% done.
  83% done.
 100% done.
 CPU time [min]:     0.570                   Wall time [min]:     0.017
 
 Gradient norm:      2.3390E-02
 DIIS is running in this iteration step.
 RMS of [F,P]:                                         0.00031803859850
 RMS of difference density:                            0.00032182300619
 Gap [au]:  0.52399745
 ALPHA OCC:   5
 BETA  OCC:   5
 
 ***HARTREE-FOCK ENERGY IN STEP   4 IS        -56.1481385576800065 [AU]
 
 Step comparison  Energy Drift [au]  DIIS error drift  Gradient drift
        3            5.3014E-03         2.2475E-03       9.3826E-02
 ======================================================================
 ITERATION STEP   5
 CPU time [min]:     0.586                   Wall time [min]:     0.017
 

 SCF control                  : diis
 Damping factor/level shift   : 0.000/0.000
 DIIS [start/end/frequency]   :   2 /200 /  1

 Constructing Fock-matrix...
 
 Pipek-Mezey localization...
 Step  Convergence
   1   0.040096321194
   2   0.040142712965
   3   0.000024527043
   4   0.000000001005
 CPU time [min]:     0.609                   Wall time [min]:     0.018
 
 Constructing local fitting domains...
 Local fitting domains are unchanged.
 
 First step of Coulomb + first step of exchange...
 Exchange contribution is evaluated for MOs 1 to 5.
   1% done.
  14% done.
  25% done.
  37% done.
  49% done.
  60% done.
  72% done.
  83% done.
 100% done.
 Fitting and assembly step of exchange...
 CPU time [min]:     0.679                   Wall time [min]:     0.019
 
 Second step of Coulomb...
   1% done.
  14% done.
  25% done.
  37% done.
  49% done.
  60% done.
  72% done.
  83% done.
 100% done.
 CPU time [min]:     0.703                   Wall time [min]:     0.019
 
 Gradient norm:      1.9651E-03
 DIIS is running in this iteration step.
 RMS of [F,P]:                                         0.00005378763306
 RMS of difference density:                            0.00004563976645
 Gap [au]:  0.52430525
 ALPHA OCC:   5
 BETA  OCC:   5
 
 ***HARTREE-FOCK ENERGY IN STEP   5 IS        -56.1483021032752561 [AU]
 
 Step comparison  Energy Drift [au]  DIIS error drift  Gradient drift
        4            1.6355E-04         2.6425E-04       2.1425E-02
 ======================================================================
 ITERATION STEP   6
 CPU time [min]:     0.720                   Wall time [min]:     0.020
 

 SCF control                  : diis
 Damping factor/level shift   : 0.000/0.000
 DIIS [start/end/frequency]   :   2 /200 /  1

 Constructing Fock-matrix...
 
 Pipek-Mezey localization...
 Step  Convergence
   1   0.045168421789
   2   0.044130361691
   3   0.000005017486
   4   0.000000000968
   5   0.000000000003
   6   0.000000000000
 CPU time [min]:     0.743                   Wall time [min]:     0.020
 
 Constructing local fitting domains...
 Local fitting domains are unchanged.
 
 First step of Coulomb + first step of exchange...
 Exchange contribution is evaluated for MOs 1 to 5.
   1% done.
  14% done.
  25% done.
  37% done.
  49% done.
  60% done.
  72% done.
  83% done.
 100% done.
 Fitting and assembly step of exchange...
 CPU time [min]:     0.814                   Wall time [min]:     0.021
 
 Second step of Coulomb...
   1% done.
  14% done.
  25% done.
  37% done.
  49% done.
  60% done.
  72% done.
  83% done.
 100% done.
 CPU time [min]:     0.838                   Wall time [min]:     0.022
 
 Gradient norm:      3.2689E-04
 DIIS is running in this iteration step.
 RMS of [F,P]:                                         0.00000594081219
 RMS of difference density:                            0.00000455195295
 Gap [au]:  0.52432783
 ALPHA OCC:   5
 BETA  OCC:   5
 
 ***HARTREE-FOCK ENERGY IN STEP   6 IS        -56.1483055913131111 [AU]
 
 Step comparison  Energy Drift [au]  DIIS error drift  Gradient drift
        5            3.4880E-06         4.7847E-05       1.6382E-03
 ======================================================================
 ITERATION STEP   7
 CPU time [min]:     0.856                   Wall time [min]:     0.022
 

 SCF control                  : diis
 Damping factor/level shift   : 0.000/0.000
 DIIS [start/end/frequency]   :   2 /200 /  1

 Constructing Fock-matrix...
 
 Pipek-Mezey localization...
 Step  Convergence
   1   0.045015454894
   2   0.045890983976
   3   0.000019121231
   4   0.000000000421
   5   0.000000000003
   6   0.000000000000
 CPU time [min]:     0.879                   Wall time [min]:     0.022
 
 Constructing local fitting domains...
 Local fitting domains are unchanged.
 
 First step of Coulomb + first step of exchange...
 Exchange contribution is evaluated for MOs 1 to 5.
   1% done.
  14% done.
  25% done.
  37% done.
  49% done.
  60% done.
  72% done.
  83% done.
 100% done.
 Fitting and assembly step of exchange...
 CPU time [min]:     0.948                   Wall time [min]:     0.024
 
 Second step of Coulomb...
   1% done.
  14% done.
  25% done.
  37% done.
  49% done.
  60% done.
  72% done.
  83% done.
 100% done.
 CPU time [min]:     0.972                   Wall time [min]:     0.024
 
 Gradient norm:      9.0578E-05
 DIIS is running in this iteration step.
 RMS of [F,P]:                                         0.00000116255437
 RMS of difference density:                            0.00000154540803
 Gap [au]:  0.52431233
 ALPHA OCC:   5
 BETA  OCC:   5
 
 ***HARTREE-FOCK ENERGY IN STEP   7 IS        -56.1483056383527313 [AU]
 
 Step comparison  Energy Drift [au]  DIIS error drift  Gradient drift
        6            4.7040E-08         4.7783E-06       2.3631E-04
 ======================================================================
 ITERATION STEP   8
 CPU time [min]:     0.987                   Wall time [min]:     0.024
 

 SCF control                  : diis
 Damping factor/level shift   : 0.000/0.000
 DIIS [start/end/frequency]   :   2 /200 /  1

 Constructing Fock-matrix...
 
 Pipek-Mezey localization...
 Step  Convergence
   1   0.045394152690
   2   0.044174268026
   3   0.000029270675
   4   0.000000089237
   5   0.000000000195
   6   0.000000000000
 CPU time [min]:     1.010                   Wall time [min]:     0.025
 
 Constructing local fitting domains...
 Local fitting domains are unchanged.
 
 First step of Coulomb + first step of exchange...
 Exchange contribution is evaluated for MOs 1 to 5.
   1% done.
  14% done.
  25% done.
  37% done.
  49% done.
  60% done.
  72% done.
  83% done.
 100% done.
 Fitting and assembly step of exchange...
 CPU time [min]:     1.080                   Wall time [min]:     0.026
 
 Second step of Coulomb...
   1% done.
  14% done.
  25% done.
  37% done.
  49% done.
  60% done.
  72% done.
  83% done.
 100% done.
 CPU time [min]:     1.105                   Wall time [min]:     0.026
 
 Gradient norm:      1.4004E-05
 DIIS is running in this iteration step.
 RMS of [F,P]:                                         0.00000024706633
 RMS of difference density:                            0.00000053428948
 Gap [au]:  0.52430741
 ALPHA OCC:   5
 BETA  OCC:   5
 
 ***HARTREE-FOCK ENERGY IN STEP   8 IS        -56.1483056417764033 [AU]
 
 Step comparison  Energy Drift [au]  DIIS error drift  Gradient drift
        7            3.4237E-09         9.1549E-07       7.6574E-05
 ======================================================================
 ITERATION STEP   9
 CPU time [min]:     1.120                   Wall time [min]:     0.026
 

 SCF control                  : diis
 Damping factor/level shift   : 0.000/0.000
 DIIS [start/end/frequency]   :   2 /200 /  1

 Constructing Fock-matrix...
 
 Pipek-Mezey localization...
 Step  Convergence
   1   0.045016723881
   2   0.044015819377
   3   0.000005188808
   4   0.000000004517
   5   0.000000000007
   6   0.000000000000
 CPU time [min]:     1.143                   Wall time [min]:     0.027
 
 Constructing local fitting domains...
 Local fitting domains are unchanged.
 
 First step of Coulomb + first step of exchange...
 Exchange contribution is evaluated for MOs 1 to 5.
   1% done.
  14% done.
  25% done.
  37% done.
  49% done.
  60% done.
  72% done.
  83% done.
 100% done.
 Fitting and assembly step of exchange...
 CPU time [min]:     1.213                   Wall time [min]:     0.028
 
 Second step of Coulomb...
   1% done.
  14% done.
  25% done.
  37% done.
  49% done.
  60% done.
  72% done.
  83% done.
 100% done.
 CPU time [min]:     1.237                   Wall time [min]:     0.028
 
 Gradient norm:      3.6532E-06
 DIIS is running in this iteration step.
 RMS of [F,P]:                                         0.00000004579726
 RMS of difference density:                            0.00000014300866
 Gap [au]:  0.52430742
 ALPHA OCC:   5
 BETA  OCC:   5
 
 ***HARTREE-FOCK ENERGY IN STEP   9 IS        -56.1483056420048570 [AU]
 
 Step comparison  Energy Drift [au]  DIIS error drift  Gradient drift
        8            2.2845E-10         2.0127E-07       1.0351E-05
 ======================================================================
 ITERATION STEP  10
 CPU time [min]:     1.253                   Wall time [min]:     0.029
 

 SCF control                  : diis
 Damping factor/level shift   : 0.000/0.000
 DIIS [start/end/frequency]   :   2 /200 /  1

 Constructing Fock-matrix...
 
 Pipek-Mezey localization...
 Step  Convergence
   1   0.044898623366
   2   0.045986005679
   3   0.000044820445
   4   0.000000093604
   5   0.000000000201
   6   0.000000000001
   7   0.000000000000
 CPU time [min]:     1.276                   Wall time [min]:     0.029
 
 Constructing local fitting domains...
 Local fitting domains are unchanged.
 
 First step of Coulomb + first step of exchange...
 Exchange contribution is evaluated for MOs 1 to 5.
   1% done.
  14% done.
  25% done.
  37% done.
  49% done.
  60% done.
  72% done.
  83% done.
 100% done.
 Fitting and assembly step of exchange...
 CPU time [min]:     1.346                   Wall time [min]:     0.030
 
 Second step of Coulomb...
   1% done.
  14% done.
  25% done.
  37% done.
  49% done.
  60% done.
  72% done.
  83% done.
 100% done.
 CPU time [min]:     1.370                   Wall time [min]:     0.030
 
 Gradient norm:      5.2617E-07
 DIIS is running in this iteration step.
 RMS of [F,P]:                                         0.00000000852861
 RMS of difference density:                            0.00000002577273
 Gap [au]:  0.52430753
 ALPHA OCC:   5
 BETA  OCC:   5
 
 ***HARTREE-FOCK ENERGY IN STEP  10 IS        -56.1483056420147904 [AU]
 
 Step comparison  Energy Drift [au]  DIIS error drift  Gradient drift
        9            9.9334E-12         3.7269E-08       3.1271E-06
 ======================================================================
 ITERATION STEP  11
 CPU time [min]:     1.385                   Wall time [min]:     0.031
 

 SCF control                  : diis
 Damping factor/level shift   : 0.000/0.000
 DIIS [start/end/frequency]   :   2 /200 /  1

 Constructing Fock-matrix...
 
 Pipek-Mezey localization...
 Step  Convergence
   1   0.040276756694
   2   0.040346548446
   3   0.000003463614
   4   0.000000001279
   5   0.000000000000
 CPU time [min]:     1.408                   Wall time [min]:     0.031
 
 Constructing local fitting domains...
 Local fitting domains are unchanged.
 
 First step of Coulomb + first step of exchange...
 Exchange contribution is evaluated for MOs 1 to 5.
   1% done.
  14% done.
  25% done.
  37% done.
  49% done.
  60% done.
  72% done.
  83% done.
 100% done.
 Fitting and assembly step of exchange...
 CPU time [min]:     1.479                   Wall time [min]:     0.032
 
 Second step of Coulomb...
   1% done.
  14% done.
  25% done.
  37% done.
  49% done.
  60% done.
  72% done.
  83% done.
 100% done.
 CPU time [min]:     1.502                   Wall time [min]:     0.033
 
 Gradient norm:      3.9960E-08
 DIIS is running in this iteration step.
 RMS of [F,P]:                                         0.00000000066574
 RMS of difference density:                            0.00000000118128
 Gap [au]:  0.52430755
 ALPHA OCC:   5
 BETA  OCC:   5
 
 ***HARTREE-FOCK ENERGY IN STEP  11 IS        -56.1483056420150533 [AU]
 
 Step comparison  Energy Drift [au]  DIIS error drift  Gradient drift
       10            2.6290E-13         7.8629E-09       4.8621E-07
 ======================================================================
 ITERATION STEP  12
 CPU time [min]:     1.518                   Wall time [min]:     0.033
 

 SCF control                  : diis
 Damping factor/level shift   : 0.000/0.000
 DIIS [start/end/frequency]   :   2 /200 /  1

 Constructing Fock-matrix...
 
 Pipek-Mezey localization...
 Step  Convergence
   1   0.040074311275
   2   0.040348735402
   3   0.000003420430
   4   0.000000001250
   5   0.000000000000
 CPU time [min]:     1.541                   Wall time [min]:     0.033
 
 Constructing local fitting domains...
 Local fitting domains are unchanged.
 
 First step of Coulomb + first step of exchange...
 Exchange contribution is evaluated for MOs 1 to 5.
   1% done.
  14% done.
  25% done.
  37% done.
  49% done.
  60% done.
  72% done.
  83% done.
 100% done.
 Fitting and assembly step of exchange...
 CPU time [min]:     1.612                   Wall time [min]:     0.035
 
 Second step of Coulomb...
   1% done.
  14% done.
  25% done.
  37% done.
  49% done.
  60% done.
  72% done.
  83% done.
 100% done.
 CPU time [min]:     1.636                   Wall time [min]:     0.035
 
 Gradient norm:      3.9531E-09
 DIIS is running in this iteration step.
 RMS of [F,P]:                                         0.00000000007638
 RMS of difference density:                            0.00000000011172
 Gap [au]:  0.52430755
 ALPHA OCC:   5
 BETA  OCC:   5
 
 ***HARTREE-FOCK ENERGY IN STEP  12 IS        -56.1483056420152167 [AU]
 
 Step comparison  Energy Drift [au]  DIIS error drift  Gradient drift
       11            1.6342E-13         5.8936E-10       3.6007E-08
 
 The SCF iteration has converged.
 An extra iteration will be performed to calculate accurate SCF energy.
 
 ======================================================================
 ITERATION STEP  13
 CPU time [min]:     1.653                   Wall time [min]:     0.035
 

 SCF control                  : diis
 Damping factor/level shift   : 0.000/0.000
 DIIS [start/end/frequency]   :   2 /200 /  1

 Constructing Fock-matrix...
 
 Pipek-Mezey localization...
 Step  Convergence
   1   0.045396165762
   2   0.046083481520
   3   0.000038148981
   4   0.000000067857
   5   0.000000000434
   6   0.000000000002
   7   0.000000000000
 CPU time [min]:     1.676                   Wall time [min]:     0.036
 
 Constructing local fitting domains...
 Maximum number of atoms in fitting domains:   12
 Average number of atoms in fitting domains:   12.0
 
 First step of Coulomb + first step of exchange...
 Exchange contribution is evaluated for MOs 1 to 5.
   1% done.
  14% done.
  25% done.
  37% done.
  49% done.
  60% done.
  72% done.
  83% done.
 100% done.
 Fitting and assembly step of exchange...
 CPU time [min]:     1.764                   Wall time [min]:     0.037
 
 Second step of Coulomb...
   1% done.
  14% done.
  25% done.
  37% done.
  49% done.
  60% done.
  72% done.
  83% done.
 100% done.
 CPU time [min]:     1.788                   Wall time [min]:     0.037
 
 Gradient norm:      1.9325E-06
 RMS of [F,P]:                                         0.00000003938980
 RMS of difference density:                            0.00000006856930
 Gap [au]:  0.52428844
 ALPHA OCC:   5
 BETA  OCC:   5
 
 ***HARTREE-FOCK ENERGY IN STEP  13 IS        -56.1483058287572234 [AU]
 
 Step comparison  Energy Drift [au]  DIIS error drift  Gradient drift
       12            1.8674E-07        -3.9313E-08      -1.9285E-06
 Warning! The DIIS error goes uphill (with respect to previous step).
 Warning! The DIIS error goes uphill (with respect to step  12 ).
 Warning! The gradient goes uphill (with respect to previous step).
 Warning! The gradient goes uphill (with respect to step  12 ).
 ======================================================================
 
 SUCCESS...
 THE SCF ITERATION HAS CONVERGED!
 
                   A   
 FINAL ALPHA OCC:   5
 FINAL BETA  OCC:   5
 
 ***FINAL HARTREE-FOCK ENERGY:        -56.1483058287572234 [AU]
 
 Orbital energies [au]:
      Irrep         Alpha          Beta
    1   A        -15.540497     -15.540497
    2   A         -1.112057      -1.112057
    3   A         -0.615998      -0.615998
    4   A         -0.615955      -0.615955
    5   A         -0.419189      -0.419189
 
    6   A          0.105099       0.105099
    7   A          0.123546       0.123546
    8   A          0.180033       0.180033
    9   A          0.220938       0.220938
   10   A          0.248531       0.248531
   11   A          0.250491       0.250491
   12   A          0.252665       0.252665
   13   A          0.275216       0.275216
   14   A          0.347761       0.347761
   15   A          0.442527       0.442527
   16   A          0.453085       0.453085
   17   A          0.591456       0.591456
   18   A          0.596650       0.596650
   19   A          0.701423       0.701423
   20   A          0.712967       0.712967
   21   A          0.718772       0.718772
   22   A          0.729269       0.729269
   23   A          0.736280       0.736280
   24   A          0.749178       0.749178
   25   A          0.901163       0.901163
   26   A          0.998222       0.998222
   27   A          1.093918       1.093918
   28   A          1.121566       1.121566
   29   A          1.155453       1.155453
   30   A          1.458716       1.458716
   31   A          1.459565       1.459565
   32   A          1.567872       1.567872
   33   A          1.577933       1.577933
   34   A          1.579290       1.579290
   35   A          1.581837       1.581837
   36   A          1.599558       1.599558
   37   A          1.628651       1.628651
   38   A          1.755403       1.755403
   39   A          1.766635       1.766635
   40   A          1.866087       1.866087
   41   A          1.955788       1.955788
   42   A          1.957842       1.957842
   43   A          1.968443       1.968443
   44   A          1.968951       1.968951
   45   A          1.971592       1.971592
   46   A          2.073746       2.073746
   47   A          2.074371       2.074371
   48   A          2.269514       2.269514
   49   A          2.277880       2.277880
   50   A          2.415584       2.415584
   51   A          2.418042       2.418042
   52   A          2.435712       2.435712
   53   A          2.447436       2.447436
   54   A          2.461868       2.461868
   55   A          2.470098       2.470098
   56   A          2.471074       2.471074
   57   A          2.474039       2.474039
   58   A          2.483707       2.483707
   59   A          2.486611       2.486611
   60   A          2.491851       2.491851
   61   A          2.493702       2.493702
   62   A          2.750005       2.750005
   63   A          3.031306       3.031306
   64   A          3.037198       3.037198
   65   A          3.154845       3.154845
   66   A          3.159819       3.159819
   67   A          3.261686       3.261686
   68   A          3.691590       3.691590
   69   A          3.705082       3.705082
   70   A          4.007276       4.007276
   71   A          4.018428       4.018428
   72   A          4.027529       4.027529
   73   A          4.033881       4.033881
   74   A          4.038534       4.038534
   75   A          4.039358       4.039358
   76   A          4.147467       4.147467
   77   A          4.153288       4.153288
   78   A          4.158899       4.158899
   79   A          4.159421       4.159421
   80   A          4.883181       4.883181
   81   A          4.892315       4.892315
   82   A          6.039417       6.039417
   83   A          6.040501       6.040501
   84   A          6.051066       6.051066
   85   A          6.051748       6.051748
   86   A         26.588585      26.588585
   87   A         26.598090      26.598090
 
 RETURNING FROM SCF ALGORITHM
 ======================================================================

 ************************ 2026-02-26 23:39:21 *************************
 Executing integ...

 Allocation of 46.0 Gbytes of memory...
 
 
 Number of atoms:                 12
 Charge:                           0
 Number of electrons:             10
 Number of core electrons:         2
 Spin multiplicity:                1
 
                 Cartesian coordinates [bohr]      Atomic mass [AMU]  Z
   1  N     6.82182577   12.56870435    7.72099687    14.003074       7
   2  H     8.36625160   11.90420748    8.68871146     1.007825       1
   3  H     7.48639849   13.53638789    6.17641118     1.007825       1
   4  H     5.85401804   11.02435588    7.05654762     1.007825       1
   5  N     6.82182577   12.56870435   17.41623676     0.000000       0
   6  H     8.36625160   11.90420748   18.38395135     0.000000       0
   7  H     7.48639849   13.53638789   15.87165107     0.000000       0
   8  H     5.85401804   11.02435588   16.75178750     0.000000       0
   9  N    12.56867272    7.72109067    6.82187243     0.000000       0
  10  H    13.53645296    6.17673805    7.48629888     0.000000       0
  11  H    11.02421872    7.05658759    5.85414160     0.000000       0
  12  H    11.90408933    8.68876012    8.36643752     0.000000       0
 
 This molecule is an asymmetric top.
 
 Point group: C1  
 Computational point group: C1  
 
 Cartesian coordinates in standard orientation [bohr]
   1  N    -0.48108419    0.85990607   -0.00936746
   2  H     0.07773394   -0.92798325   -0.51380062
   3  H    -1.95028859    1.35173213   -1.17699703
   4  H    -1.19274584    0.75092057    1.79197002
   5  N     8.93601995   -1.44569658   -0.00463782
   6  H     9.49483808   -3.23358591   -0.50907098
   7  H     7.46681555   -0.95387053   -1.17226739
   8  H     8.22435830   -1.55468209    1.79669966
   9  N    -3.14219847   -6.22854092   -0.08951153
  10  H    -2.91118332   -8.07783345    0.44885194
  11  H    -3.90783149   -5.28324189    1.42165401
  12  H    -1.37185407   -5.49329832   -0.38789982
 
 Nuclear repulsion energy [au]:         11.785794585729
 
 
 Basis set information:
 
 Maximum angular momentum: g
 Maximum number of contracted Gaussians:   11
 Maximum number of primitive Gaussians:    14
 Spherical harmonic GTOs are used.
 
 
 Conventional basis set:
 
   1  N  aug-cc-pvtz [ 11s 6p 3d 2f | 5s 4p 3d 2f ]
   2  H  aug-cc-pvtz [ 6s 3p 2d | 4s 3p 2d ]
   3  H  aug-cc-pvtz [ 6s 3p 2d | 4s 3p 2d ]
   4  H  aug-cc-pvtz [ 6s 3p 2d | 4s 3p 2d ]
   5  N  aug-cc-pvtz [ 11s 6p 3d 2f | 5s 4p 3d 2f ]
   6  H  aug-cc-pvtz [ 6s 3p 2d | 4s 3p 2d ]
   7  H  aug-cc-pvtz [ 6s 3p 2d | 4s 3p 2d ]
   8  H  aug-cc-pvtz [ 6s 3p 2d | 4s 3p 2d ]
   9  N  aug-cc-pvtz [ 11s 6p 3d 2f | 5s 4p 3d 2f ]
  10  H  aug-cc-pvtz [ 6s 3p 2d | 4s 3p 2d ]
  11  H  aug-cc-pvtz [ 6s 3p 2d | 4s 3p 2d ]
  12  H  aug-cc-pvtz [ 6s 3p 2d | 4s 3p 2d ]
 
 Basis functions:
            1             2             3             4             5             6             7             8             9            10
    0    1N1s          1N2s          1N3s          1N4s          1N5s          1N1pz         1N1py         1N1px         1N2pz         1N2py     
    1    1N2px         1N3pz         1N3py         1N3px         1N4pz         1N4py         1N4px         1N1d-2        1N1d-1        1N1d0     
    2    1N1d+1        1N1d+2        1N2d-2        1N2d-1        1N2d0         1N2d+1        1N2d+2        1N3d-2        1N3d-1        1N3d0     
    3    1N3d+1        1N3d+2        1N1f-3        1N1f-2        1N1f-1        1N1f0         1N1f+1        1N1f+2        1N1f+3        1N2f-3    
    4    1N2f-2        1N2f-1        1N2f0         1N2f+1        1N2f+2        1N2f+3        2H1s          2H2s          2H3s          2H4s      
    5    2H1pz         2H1py         2H1px         2H2pz         2H2py         2H2px         2H3pz         2H3py         2H3px         2H1d-2    
    6    2H1d-1        2H1d0         2H1d+1        2H1d+2        2H2d-2        2H2d-1        2H2d0         2H2d+1        2H2d+2        3H1s      
    7    3H2s          3H3s          3H4s          3H1pz         3H1py         3H1px         3H2pz         3H2py         3H2px         3H3pz     
    8    3H3py         3H3px         3H1d-2        3H1d-1        3H1d0         3H1d+1        3H1d+2        3H2d-2        3H2d-1        3H2d0     
    9    3H2d+1        3H2d+2        4H1s          4H2s          4H3s          4H4s          4H1pz         4H1py         4H1px         4H2pz     
   10    4H2py         4H2px         4H3pz         4H3py         4H3px         4H1d-2        4H1d-1        4H1d0         4H1d+1        4H1d+2    
   11    4H2d-2        4H2d-1        4H2d0         4H2d+1        4H2d+2        5N1s          5N2s          5N3s          5N4s          5N5s      
   12    5N1pz         5N1py         5N1px         5N2pz         5N2py         5N2px         5N3pz         5N3py         5N3px         5N4pz     
   13    5N4py         5N4px         5N1d-2        5N1d-1        5N1d0         5N1d+1        5N1d+2        5N2d-2        5N2d-1        5N2d0     
   14    5N2d+1        5N2d+2        5N3d-2        5N3d-1        5N3d0         5N3d+1        5N3d+2        5N1f-3        5N1f-2        5N1f-1    
   15    5N1f0         5N1f+1        5N1f+2        5N1f+3        5N2f-3        5N2f-2        5N2f-1        5N2f0         5N2f+1        5N2f+2    
   16    5N2f+3        6H1s          6H2s          6H3s          6H4s          6H1pz         6H1py         6H1px         6H2pz         6H2py     
   17    6H2px         6H3pz         6H3py         6H3px         6H1d-2        6H1d-1        6H1d0         6H1d+1        6H1d+2        6H2d-2    
   18    6H2d-1        6H2d0         6H2d+1        6H2d+2        7H1s          7H2s          7H3s          7H4s          7H1pz         7H1py     
   19    7H1px         7H2pz         7H2py         7H2px         7H3pz         7H3py         7H3px         7H1d-2        7H1d-1        7H1d0     
   20    7H1d+1        7H1d+2        7H2d-2        7H2d-1        7H2d0         7H2d+1        7H2d+2        8H1s          8H2s          8H3s      
   21    8H4s          8H1pz         8H1py         8H1px         8H2pz         8H2py         8H2px         8H3pz         8H3py         8H3px     
   22    8H1d-2        8H1d-1        8H1d0         8H1d+1        8H1d+2        8H2d-2        8H2d-1        8H2d0         8H2d+1        8H2d+2    
   23    9N1s          9N2s          9N3s          9N4s          9N5s          9N1pz         9N1py         9N1px         9N2pz         9N2py     
   24    9N2px         9N3pz         9N3py         9N3px         9N4pz         9N4py         9N4px         9N1d-2        9N1d-1        9N1d0     
   25    9N1d+1        9N1d+2        9N2d-2        9N2d-1        9N2d0         9N2d+1        9N2d+2        9N3d-2        9N3d-1        9N3d0     
   26    9N3d+1        9N3d+2        9N1f-3        9N1f-2        9N1f-1        9N1f0         9N1f+1        9N1f+2        9N1f+3        9N2f-3    
   27    9N2f-2        9N2f-1        9N2f0         9N2f+1        9N2f+2        9N2f+3       10H1s         10H2s         10H3s         10H4s      
   28   10H1pz        10H1py        10H1px        10H2pz        10H2py        10H2px        10H3pz        10H3py        10H3px        10H1d-2    
   29   10H1d-1       10H1d0        10H1d+1       10H1d+2       10H2d-2       10H2d-1       10H2d0        10H2d+1       10H2d+2       11H1s      
   30   11H2s         11H3s         11H4s         11H1pz        11H1py        11H1px        11H2pz        11H2py        11H2px        11H3pz     
   31   11H3py        11H3px        11H1d-2       11H1d-1       11H1d0        11H1d+1       11H1d+2       11H2d-2       11H2d-1       11H2d0     
   32   11H2d+1       11H2d+2       12H1s         12H2s         12H3s         12H4s         12H1pz        12H1py        12H1px        12H2pz     
   33   12H2py        12H2px        12H3pz        12H3py        12H3px        12H1d-2       12H1d-1       12H1d0        12H1d+1       12H1d+2    
   34   12H2d-2       12H2d-1       12H2d0        12H2d+1       12H2d+2    
 
 Maximum number of basis functions per shell:   15
 Total number of basis functions:    345
 
 
 Fitting basis set for the SCF calculation:
 
   1  N  aug-cc-pvtz-ri-jk [ 11s 8p 6d 3f 2g | 11s 8p 6d 3f 2g ]
   2  H  aug-cc-pvtz-ri-jk [ 5s 4p 3d 2f | 5s 4p 3d 2f ]
   3  H  aug-cc-pvtz-ri-jk [ 5s 4p 3d 2f | 5s 4p 3d 2f ]
   4  H  aug-cc-pvtz-ri-jk [ 5s 4p 3d 2f | 5s 4p 3d 2f ]
   5  N  aug-cc-pvtz-ri-jk [ 11s 8p 6d 3f 2g | 11s 8p 6d 3f 2g ]
   6  H  aug-cc-pvtz-ri-jk [ 5s 4p 3d 2f | 5s 4p 3d 2f ]
   7  H  aug-cc-pvtz-ri-jk [ 5s 4p 3d 2f | 5s 4p 3d 2f ]
   8  H  aug-cc-pvtz-ri-jk [ 5s 4p 3d 2f | 5s 4p 3d 2f ]
   9  N  aug-cc-pvtz-ri-jk [ 11s 8p 6d 3f 2g | 11s 8p 6d 3f 2g ]
  10  H  aug-cc-pvtz-ri-jk [ 5s 4p 3d 2f | 5s 4p 3d 2f ]
  11  H  aug-cc-pvtz-ri-jk [ 5s 4p 3d 2f | 5s 4p 3d 2f ]
  12  H  aug-cc-pvtz-ri-jk [ 5s 4p 3d 2f | 5s 4p 3d 2f ]
 
 Basis functions:
            1             2             3             4             5             6             7             8             9            10
    0    1N1s          1N2s          1N3s          1N4s          1N5s          1N6s          1N7s          1N8s          1N9s          1N10s     
    1    1N11s         1N1pz         1N1py         1N1px         1N2pz         1N2py         1N2px         1N3pz         1N3py         1N3px     
    2    1N4pz         1N4py         1N4px         1N5pz         1N5py         1N5px         1N6pz         1N6py         1N6px         1N7pz     
    3    1N7py         1N7px         1N8pz         1N8py         1N8px         1N1d-2        1N1d-1        1N1d0         1N1d+1        1N1d+2    
    4    1N2d-2        1N2d-1        1N2d0         1N2d+1        1N2d+2        1N3d-2        1N3d-1        1N3d0         1N3d+1        1N3d+2    
    5    1N4d-2        1N4d-1        1N4d0         1N4d+1        1N4d+2        1N5d-2        1N5d-1        1N5d0         1N5d+1        1N5d+2    
    6    1N6d-2        1N6d-1        1N6d0         1N6d+1        1N6d+2        1N1f-3        1N1f-2        1N1f-1        1N1f0         1N1f+1    
    7    1N1f+2        1N1f+3        1N2f-3        1N2f-2        1N2f-1        1N2f0         1N2f+1        1N2f+2        1N2f+3        1N3f-3    
    8    1N3f-2        1N3f-1        1N3f0         1N3f+1        1N3f+2        1N3f+3        1N1g-4        1N1g-3        1N1g-2        1N1g-1    
    9    1N1g0         1N1g+1        1N1g+2        1N1g+3        1N1g+4        1N2g-4        1N2g-3        1N2g-2        1N2g-1        1N2g0     
   10    1N2g+1        1N2g+2        1N2g+3        1N2g+4        2H1s          2H2s          2H3s          2H4s          2H5s          2H1pz     
   11    2H1py         2H1px         2H2pz         2H2py         2H2px         2H3pz         2H3py         2H3px         2H4pz         2H4py     
   12    2H4px         2H1d-2        2H1d-1        2H1d0         2H1d+1        2H1d+2        2H2d-2        2H2d-1        2H2d0         2H2d+1    
   13    2H2d+2        2H3d-2        2H3d-1        2H3d0         2H3d+1        2H3d+2        2H1f-3        2H1f-2        2H1f-1        2H1f0     
   14    2H1f+1        2H1f+2        2H1f+3        2H2f-3        2H2f-2        2H2f-1        2H2f0         2H2f+1        2H2f+2        2H2f+3    
   15    3H1s          3H2s          3H3s          3H4s          3H5s          3H1pz         3H1py         3H1px         3H2pz         3H2py     
   16    3H2px         3H3pz         3H3py         3H3px         3H4pz         3H4py         3H4px         3H1d-2        3H1d-1        3H1d0     
   17    3H1d+1        3H1d+2        3H2d-2        3H2d-1        3H2d0         3H2d+1        3H2d+2        3H3d-2        3H3d-1        3H3d0     
   18    3H3d+1        3H3d+2        3H1f-3        3H1f-2        3H1f-1        3H1f0         3H1f+1        3H1f+2        3H1f+3        3H2f-3    
   19    3H2f-2        3H2f-1        3H2f0         3H2f+1        3H2f+2        3H2f+3        4H1s          4H2s          4H3s          4H4s      
   20    4H5s          4H1pz         4H1py         4H1px         4H2pz         4H2py         4H2px         4H3pz         4H3py         4H3px     
   21    4H4pz         4H4py         4H4px         4H1d-2        4H1d-1        4H1d0         4H1d+1        4H1d+2        4H2d-2        4H2d-1    
   22    4H2d0         4H2d+1        4H2d+2        4H3d-2        4H3d-1        4H3d0         4H3d+1        4H3d+2        4H1f-3        4H1f-2    
   23    4H1f-1        4H1f0         4H1f+1        4H1f+2        4H1f+3        4H2f-3        4H2f-2        4H2f-1        4H2f0         4H2f+1    
   24    4H2f+2        4H2f+3        5N1s          5N2s          5N3s          5N4s          5N5s          5N6s          5N7s          5N8s      
   25    5N9s          5N10s         5N11s         5N1pz         5N1py         5N1px         5N2pz         5N2py         5N2px         5N3pz     
   26    5N3py         5N3px         5N4pz         5N4py         5N4px         5N5pz         5N5py         5N5px         5N6pz         5N6py     
   27    5N6px         5N7pz         5N7py         5N7px         5N8pz         5N8py         5N8px         5N1d-2        5N1d-1        5N1d0     
   28    5N1d+1        5N1d+2        5N2d-2        5N2d-1        5N2d0         5N2d+1        5N2d+2        5N3d-2        5N3d-1        5N3d0     
   29    5N3d+1        5N3d+2        5N4d-2        5N4d-1        5N4d0         5N4d+1        5N4d+2        5N5d-2        5N5d-1        5N5d0     
   30    5N5d+1        5N5d+2        5N6d-2        5N6d-1        5N6d0         5N6d+1        5N6d+2        5N1f-3        5N1f-2        5N1f-1    
   31    5N1f0         5N1f+1        5N1f+2        5N1f+3        5N2f-3        5N2f-2        5N2f-1        5N2f0         5N2f+1        5N2f+2    
   32    5N2f+3        5N3f-3        5N3f-2        5N3f-1        5N3f0         5N3f+1        5N3f+2        5N3f+3        5N1g-4        5N1g-3    
   33    5N1g-2        5N1g-1        5N1g0         5N1g+1        5N1g+2        5N1g+3        5N1g+4        5N2g-4        5N2g-3        5N2g-2    
   34    5N2g-1        5N2g0         5N2g+1        5N2g+2        5N2g+3        5N2g+4        6H1s          6H2s          6H3s          6H4s      
   35    6H5s          6H1pz         6H1py         6H1px         6H2pz         6H2py         6H2px         6H3pz         6H3py         6H3px     
   36    6H4pz         6H4py         6H4px         6H1d-2        6H1d-1        6H1d0         6H1d+1        6H1d+2        6H2d-2        6H2d-1    
   37    6H2d0         6H2d+1        6H2d+2        6H3d-2        6H3d-1        6H3d0         6H3d+1        6H3d+2        6H1f-3        6H1f-2    
   38    6H1f-1        6H1f0         6H1f+1        6H1f+2        6H1f+3        6H2f-3        6H2f-2        6H2f-1        6H2f0         6H2f+1    
   39    6H2f+2        6H2f+3        7H1s          7H2s          7H3s          7H4s          7H5s          7H1pz         7H1py         7H1px     
   40    7H2pz         7H2py         7H2px         7H3pz         7H3py         7H3px         7H4pz         7H4py         7H4px         7H1d-2    
   41    7H1d-1        7H1d0         7H1d+1        7H1d+2        7H2d-2        7H2d-1        7H2d0         7H2d+1        7H2d+2        7H3d-2    
   42    7H3d-1        7H3d0         7H3d+1        7H3d+2        7H1f-3        7H1f-2        7H1f-1        7H1f0         7H1f+1        7H1f+2    
   43    7H1f+3        7H2f-3        7H2f-2        7H2f-1        7H2f0         7H2f+1        7H2f+2        7H2f+3        8H1s          8H2s      
   44    8H3s          8H4s          8H5s          8H1pz         8H1py         8H1px         8H2pz         8H2py         8H2px         8H3pz     
   45    8H3py         8H3px         8H4pz         8H4py         8H4px         8H1d-2        8H1d-1        8H1d0         8H1d+1        8H1d+2    
   46    8H2d-2        8H2d-1        8H2d0         8H2d+1        8H2d+2        8H3d-2        8H3d-1        8H3d0         8H3d+1        8H3d+2    
   47    8H1f-3        8H1f-2        8H1f-1        8H1f0         8H1f+1        8H1f+2        8H1f+3        8H2f-3        8H2f-2        8H2f-1    
   48    8H2f0         8H2f+1        8H2f+2        8H2f+3        9N1s          9N2s          9N3s          9N4s          9N5s          9N6s      
   49    9N7s          9N8s          9N9s          9N10s         9N11s         9N1pz         9N1py         9N1px         9N2pz         9N2py     
   50    9N2px         9N3pz         9N3py         9N3px         9N4pz         9N4py         9N4px         9N5pz         9N5py         9N5px     
   51    9N6pz         9N6py         9N6px         9N7pz         9N7py         9N7px         9N8pz         9N8py         9N8px         9N1d-2    
   52    9N1d-1        9N1d0         9N1d+1        9N1d+2        9N2d-2        9N2d-1        9N2d0         9N2d+1        9N2d+2        9N3d-2    
   53    9N3d-1        9N3d0         9N3d+1        9N3d+2        9N4d-2        9N4d-1        9N4d0         9N4d+1        9N4d+2        9N5d-2    
   54    9N5d-1        9N5d0         9N5d+1        9N5d+2        9N6d-2        9N6d-1        9N6d0         9N6d+1        9N6d+2        9N1f-3    
   55    9N1f-2        9N1f-1        9N1f0         9N1f+1        9N1f+2        9N1f+3        9N2f-3        9N2f-2        9N2f-1        9N2f0     
   56    9N2f+1        9N2f+2        9N2f+3        9N3f-3        9N3f-2        9N3f-1        9N3f0         9N3f+1        9N3f+2        9N3f+3    
   57    9N1g-4        9N1g-3        9N1g-2        9N1g-1        9N1g0         9N1g+1        9N1g+2        9N1g+3        9N1g+4        9N2g-4    
   58    9N2g-3        9N2g-2        9N2g-1        9N2g0         9N2g+1        9N2g+2        9N2g+3        9N2g+4       10H1s         10H2s      
   59   10H3s         10H4s         10H5s         10H1pz        10H1py        10H1px        10H2pz        10H2py        10H2px        10H3pz     
   60   10H3py        10H3px        10H4pz        10H4py        10H4px        10H1d-2       10H1d-1       10H1d0        10H1d+1       10H1d+2    
   61   10H2d-2       10H2d-1       10H2d0        10H2d+1       10H2d+2       10H3d-2       10H3d-1       10H3d0        10H3d+1       10H3d+2    
   62   10H1f-3       10H1f-2       10H1f-1       10H1f0        10H1f+1       10H1f+2       10H1f+3       10H2f-3       10H2f-2       10H2f-1    
   63   10H2f0        10H2f+1       10H2f+2       10H2f+3       11H1s         11H2s         11H3s         11H4s         11H5s         11H1pz     
   64   11H1py        11H1px        11H2pz        11H2py        11H2px        11H3pz        11H3py        11H3px        11H4pz        11H4py     
   65   11H4px        11H1d-2       11H1d-1       11H1d0        11H1d+1       11H1d+2       11H2d-2       11H2d-1       11H2d0        11H2d+1    
   66   11H2d+2       11H3d-2       11H3d-1       11H3d0        11H3d+1       11H3d+2       11H1f-3       11H1f-2       11H1f-1       11H1f0     
   67   11H1f+1       11H1f+2       11H1f+3       11H2f-3       11H2f-2       11H2f-1       11H2f0        11H2f+1       11H2f+2       11H2f+3    
   68   12H1s         12H2s         12H3s         12H4s         12H5s         12H1pz        12H1py        12H1px        12H2pz        12H2py     
   69   12H2px        12H3pz        12H3py        12H3px        12H4pz        12H4py        12H4px        12H1d-2       12H1d-1       12H1d0     
   70   12H1d+1       12H1d+2       12H2d-2       12H2d-1       12H2d0        12H2d+1       12H2d+2       12H3d-2       12H3d-1       12H3d0     
   71   12H3d+1       12H3d+2       12H1f-3       12H1f-2       12H1f-1       12H1f0        12H1f+1       12H1f+2       12H1f+3       12H2f-3    
   72   12H2f-2       12H2f-1       12H2f0        12H2f+1       12H2f+2       12H2f+3    
 
 Maximum number of basis functions per shell:   30
 Total number of basis functions:    726
 
 
 Fitting basis set for the correlation calculation:
 
   1  N  aug-cc-pvtz-ri [ 9s 7p 6d 4f 2g | 9s 7p 6d 4f 2g ]
   2  H  aug-cc-pvtz-ri [ 5s 4p 3d 2f | 5s 4p 3d 2f ]
   3  H  aug-cc-pvtz-ri [ 5s 4p 3d 2f | 5s 4p 3d 2f ]
   4  H  aug-cc-pvtz-ri [ 5s 4p 3d 2f | 5s 4p 3d 2f ]
   5  N  aug-cc-pvtz-ri [ 9s 7p 6d 4f 2g | 9s 7p 6d 4f 2g ]
   6  H  aug-cc-pvtz-ri [ 5s 4p 3d 2f | 5s 4p 3d 2f ]
   7  H  aug-cc-pvtz-ri [ 5s 4p 3d 2f | 5s 4p 3d 2f ]
   8  H  aug-cc-pvtz-ri [ 5s 4p 3d 2f | 5s 4p 3d 2f ]
   9  N  aug-cc-pvtz-ri [ 9s 7p 6d 4f 2g | 9s 7p 6d 4f 2g ]
  10  H  aug-cc-pvtz-ri [ 5s 4p 3d 2f | 5s 4p 3d 2f ]
  11  H  aug-cc-pvtz-ri [ 5s 4p 3d 2f | 5s 4p 3d 2f ]
  12  H  aug-cc-pvtz-ri [ 5s 4p 3d 2f | 5s 4p 3d 2f ]
 
 Basis functions:
            1             2             3             4             5             6             7             8             9            10
    0    1N1s          1N2s          1N3s          1N4s          1N5s          1N6s          1N7s          1N8s          1N9s          1N1pz     
    1    1N1py         1N1px         1N2pz         1N2py         1N2px         1N3pz         1N3py         1N3px         1N4pz         1N4py     
    2    1N4px         1N5pz         1N5py         1N5px         1N6pz         1N6py         1N6px         1N7pz         1N7py         1N7px     
    3    1N1d-2        1N1d-1        1N1d0         1N1d+1        1N1d+2        1N2d-2        1N2d-1        1N2d0         1N2d+1        1N2d+2    
    4    1N3d-2        1N3d-1        1N3d0         1N3d+1        1N3d+2        1N4d-2        1N4d-1        1N4d0         1N4d+1        1N4d+2    
    5    1N5d-2        1N5d-1        1N5d0         1N5d+1        1N5d+2        1N6d-2        1N6d-1        1N6d0         1N6d+1        1N6d+2    
    6    1N1f-3        1N1f-2        1N1f-1        1N1f0         1N1f+1        1N1f+2        1N1f+3        1N2f-3        1N2f-2        1N2f-1    
    7    1N2f0         1N2f+1        1N2f+2        1N2f+3        1N3f-3        1N3f-2        1N3f-1        1N3f0         1N3f+1        1N3f+2    
    8    1N3f+3        1N4f-3        1N4f-2        1N4f-1        1N4f0         1N4f+1        1N4f+2        1N4f+3        1N1g-4        1N1g-3    
    9    1N1g-2        1N1g-1        1N1g0         1N1g+1        1N1g+2        1N1g+3        1N1g+4        1N2g-4        1N2g-3        1N2g-2    
   10    1N2g-1        1N2g0         1N2g+1        1N2g+2        1N2g+3        1N2g+4        2H1s          2H2s          2H3s          2H4s      
   11    2H5s          2H1pz         2H1py         2H1px         2H2pz         2H2py         2H2px         2H3pz         2H3py         2H3px     
   12    2H4pz         2H4py         2H4px         2H1d-2        2H1d-1        2H1d0         2H1d+1        2H1d+2        2H2d-2        2H2d-1    
   13    2H2d0         2H2d+1        2H2d+2        2H3d-2        2H3d-1        2H3d0         2H3d+1        2H3d+2        2H1f-3        2H1f-2    
   14    2H1f-1        2H1f0         2H1f+1        2H1f+2        2H1f+3        2H2f-3        2H2f-2        2H2f-1        2H2f0         2H2f+1    
   15    2H2f+2        2H2f+3        3H1s          3H2s          3H3s          3H4s          3H5s          3H1pz         3H1py         3H1px     
   16    3H2pz         3H2py         3H2px         3H3pz         3H3py         3H3px         3H4pz         3H4py         3H4px         3H1d-2    
   17    3H1d-1        3H1d0         3H1d+1        3H1d+2        3H2d-2        3H2d-1        3H2d0         3H2d+1        3H2d+2        3H3d-2    
   18    3H3d-1        3H3d0         3H3d+1        3H3d+2        3H1f-3        3H1f-2        3H1f-1        3H1f0         3H1f+1        3H1f+2    
   19    3H1f+3        3H2f-3        3H2f-2        3H2f-1        3H2f0         3H2f+1        3H2f+2        3H2f+3        4H1s          4H2s      
   20    4H3s          4H4s          4H5s          4H1pz         4H1py         4H1px         4H2pz         4H2py         4H2px         4H3pz     
   21    4H3py         4H3px         4H4pz         4H4py         4H4px         4H1d-2        4H1d-1        4H1d0         4H1d+1        4H1d+2    
   22    4H2d-2        4H2d-1        4H2d0         4H2d+1        4H2d+2        4H3d-2        4H3d-1        4H3d0         4H3d+1        4H3d+2    
   23    4H1f-3        4H1f-2        4H1f-1        4H1f0         4H1f+1        4H1f+2        4H1f+3        4H2f-3        4H2f-2        4H2f-1    
   24    4H2f0         4H2f+1        4H2f+2        4H2f+3        5N1s          5N2s          5N3s          5N4s          5N5s          5N6s      
   25    5N7s          5N8s          5N9s          5N1pz         5N1py         5N1px         5N2pz         5N2py         5N2px         5N3pz     
   26    5N3py         5N3px         5N4pz         5N4py         5N4px         5N5pz         5N5py         5N5px         5N6pz         5N6py     
   27    5N6px         5N7pz         5N7py         5N7px         5N1d-2        5N1d-1        5N1d0         5N1d+1        5N1d+2        5N2d-2    
   28    5N2d-1        5N2d0         5N2d+1        5N2d+2        5N3d-2        5N3d-1        5N3d0         5N3d+1        5N3d+2        5N4d-2    
   29    5N4d-1        5N4d0         5N4d+1        5N4d+2        5N5d-2        5N5d-1        5N5d0         5N5d+1        5N5d+2        5N6d-2    
   30    5N6d-1        5N6d0         5N6d+1        5N6d+2        5N1f-3        5N1f-2        5N1f-1        5N1f0         5N1f+1        5N1f+2    
   31    5N1f+3        5N2f-3        5N2f-2        5N2f-1        5N2f0         5N2f+1        5N2f+2        5N2f+3        5N3f-3        5N3f-2    
   32    5N3f-1        5N3f0         5N3f+1        5N3f+2        5N3f+3        5N4f-3        5N4f-2        5N4f-1        5N4f0         5N4f+1    
   33    5N4f+2        5N4f+3        5N1g-4        5N1g-3        5N1g-2        5N1g-1        5N1g0         5N1g+1        5N1g+2        5N1g+3    
   34    5N1g+4        5N2g-4        5N2g-3        5N2g-2        5N2g-1        5N2g0         5N2g+1        5N2g+2        5N2g+3        5N2g+4    
   35    6H1s          6H2s          6H3s          6H4s          6H5s          6H1pz         6H1py         6H1px         6H2pz         6H2py     
   36    6H2px         6H3pz         6H3py         6H3px         6H4pz         6H4py         6H4px         6H1d-2        6H1d-1        6H1d0     
   37    6H1d+1        6H1d+2        6H2d-2        6H2d-1        6H2d0         6H2d+1        6H2d+2        6H3d-2        6H3d-1        6H3d0     
   38    6H3d+1        6H3d+2        6H1f-3        6H1f-2        6H1f-1        6H1f0         6H1f+1        6H1f+2        6H1f+3        6H2f-3    
   39    6H2f-2        6H2f-1        6H2f0         6H2f+1        6H2f+2        6H2f+3        7H1s          7H2s          7H3s          7H4s      
   40    7H5s          7H1pz         7H1py         7H1px         7H2pz         7H2py         7H2px         7H3pz         7H3py         7H3px     
   41    7H4pz         7H4py         7H4px         7H1d-2        7H1d-1        7H1d0         7H1d+1        7H1d+2        7H2d-2        7H2d-1    
   42    7H2d0         7H2d+1        7H2d+2        7H3d-2        7H3d-1        7H3d0         7H3d+1        7H3d+2        7H1f-3        7H1f-2    
   43    7H1f-1        7H1f0         7H1f+1        7H1f+2        7H1f+3        7H2f-3        7H2f-2        7H2f-1        7H2f0         7H2f+1    
   44    7H2f+2        7H2f+3        8H1s          8H2s          8H3s          8H4s          8H5s          8H1pz         8H1py         8H1px     
   45    8H2pz         8H2py         8H2px         8H3pz         8H3py         8H3px         8H4pz         8H4py         8H4px         8H1d-2    
   46    8H1d-1        8H1d0         8H1d+1        8H1d+2        8H2d-2        8H2d-1        8H2d0         8H2d+1        8H2d+2        8H3d-2    
   47    8H3d-1        8H3d0         8H3d+1        8H3d+2        8H1f-3        8H1f-2        8H1f-1        8H1f0         8H1f+1        8H1f+2    
   48    8H1f+3        8H2f-3        8H2f-2        8H2f-1        8H2f0         8H2f+1        8H2f+2        8H2f+3        9N1s          9N2s      
   49    9N3s          9N4s          9N5s          9N6s          9N7s          9N8s          9N9s          9N1pz         9N1py         9N1px     
   50    9N2pz         9N2py         9N2px         9N3pz         9N3py         9N3px         9N4pz         9N4py         9N4px         9N5pz     
   51    9N5py         9N5px         9N6pz         9N6py         9N6px         9N7pz         9N7py         9N7px         9N1d-2        9N1d-1    
   52    9N1d0         9N1d+1        9N1d+2        9N2d-2        9N2d-1        9N2d0         9N2d+1        9N2d+2        9N3d-2        9N3d-1    
   53    9N3d0         9N3d+1        9N3d+2        9N4d-2        9N4d-1        9N4d0         9N4d+1        9N4d+2        9N5d-2        9N5d-1    
   54    9N5d0         9N5d+1        9N5d+2        9N6d-2        9N6d-1        9N6d0         9N6d+1        9N6d+2        9N1f-3        9N1f-2    
   55    9N1f-1        9N1f0         9N1f+1        9N1f+2        9N1f+3        9N2f-3        9N2f-2        9N2f-1        9N2f0         9N2f+1    
   56    9N2f+2        9N2f+3        9N3f-3        9N3f-2        9N3f-1        9N3f0         9N3f+1        9N3f+2        9N3f+3        9N4f-3    
   57    9N4f-2        9N4f-1        9N4f0         9N4f+1        9N4f+2        9N4f+3        9N1g-4        9N1g-3        9N1g-2        9N1g-1    
   58    9N1g0         9N1g+1        9N1g+2        9N1g+3        9N1g+4        9N2g-4        9N2g-3        9N2g-2        9N2g-1        9N2g0     
   59    9N2g+1        9N2g+2        9N2g+3        9N2g+4       10H1s         10H2s         10H3s         10H4s         10H5s         10H1pz     
   60   10H1py        10H1px        10H2pz        10H2py        10H2px        10H3pz        10H3py        10H3px        10H4pz        10H4py     
   61   10H4px        10H1d-2       10H1d-1       10H1d0        10H1d+1       10H1d+2       10H2d-2       10H2d-1       10H2d0        10H2d+1    
   62   10H2d+2       10H3d-2       10H3d-1       10H3d0        10H3d+1       10H3d+2       10H1f-3       10H1f-2       10H1f-1       10H1f0     
   63   10H1f+1       10H1f+2       10H1f+3       10H2f-3       10H2f-2       10H2f-1       10H2f0        10H2f+1       10H2f+2       10H2f+3    
   64   11H1s         11H2s         11H3s         11H4s         11H5s         11H1pz        11H1py        11H1px        11H2pz        11H2py     
   65   11H2px        11H3pz        11H3py        11H3px        11H4pz        11H4py        11H4px        11H1d-2       11H1d-1       11H1d0     
   66   11H1d+1       11H1d+2       11H2d-2       11H2d-1       11H2d0        11H2d+1       11H2d+2       11H3d-2       11H3d-1       11H3d0     
   67   11H3d+1       11H3d+2       11H1f-3       11H1f-2       11H1f-1       11H1f0        11H1f+1       11H1f+2       11H1f+3       11H2f-3    
   68   11H2f-2       11H2f-1       11H2f0        11H2f+1       11H2f+2       11H2f+3       12H1s         12H2s         12H3s         12H4s      
   69   12H5s         12H1pz        12H1py        12H1px        12H2pz        12H2py        12H2px        12H3pz        12H3py        12H3px     
   70   12H4pz        12H4py        12H4px        12H1d-2       12H1d-1       12H1d0        12H1d+1       12H1d+2       12H2d-2       12H2d-1    
   71   12H2d0        12H2d+1       12H2d+2       12H3d-2       12H3d-1       12H3d0        12H3d+1       12H3d+2       12H1f-3       12H1f-2    
   72   12H1f-1       12H1f0        12H1f+1       12H1f+2       12H1f+3       12H2f-3       12H2f-2       12H2f-1       12H2f0        12H2f+1    
   73   12H2f+2       12H2f+3    
 
 Maximum number of basis functions per shell:   30
 Total number of basis functions:    732
 
 
 Old basis set for SCF restart
 
   1  N  def2-svp [ 7s 4p 1d | 3s 2p 1d ]
   2  H  def2-svp [ 4s 1p | 2s 1p ]
   3  H  def2-svp [ 4s 1p | 2s 1p ]
   4  H  def2-svp [ 4s 1p | 2s 1p ]
   5  N  def2-svp [ 7s 4p 1d | 3s 2p 1d ]
   6  H  def2-svp [ 4s 1p | 2s 1p ]
   7  H  def2-svp [ 4s 1p | 2s 1p ]
   8  H  def2-svp [ 4s 1p | 2s 1p ]
   9  N  def2-svp [ 7s 4p 1d | 3s 2p 1d ]
  10  H  def2-svp [ 4s 1p | 2s 1p ]
  11  H  def2-svp [ 4s 1p | 2s 1p ]
  12  H  def2-svp [ 4s 1p | 2s 1p ]
 
 Basis functions:
            1             2             3             4             5             6             7             8             9            10
    0    1N1s          1N2s          1N3s          1N1pz         1N1py         1N1px         1N2pz         1N2py         1N2px         1N1d-2    
    1    1N1d-1        1N1d0         1N1d+1        1N1d+2        2H1s          2H2s          2H1pz         2H1py         2H1px         3H1s      
    2    3H2s          3H1pz         3H1py         3H1px         4H1s          4H2s          4H1pz         4H1py         4H1px         5N1s      
    3    5N2s          5N3s          5N1pz         5N1py         5N1px         5N2pz         5N2py         5N2px         5N1d-2        5N1d-1    
    4    5N1d0         5N1d+1        5N1d+2        6H1s          6H2s          6H1pz         6H1py         6H1px         7H1s          7H2s      
[...]
   44    8H3s          8H4s          8H5s          8H1pz         8H1py         8H1px         8H2pz         8H2py         8H2px         8H3pz     
   45    8H3py         8H3px         8H4pz         8H4py         8H4px         8H1d-2        8H1d-1        8H1d0         8H1d+1        8H1d+2    
   46    8H2d-2        8H2d-1        8H2d0         8H2d+1        8H2d+2        8H3d-2        8H3d-1        8H3d0         8H3d+1        8H3d+2    
   47    8H1f-3        8H1f-2        8H1f-1        8H1f0         8H1f+1        8H1f+2        8H1f+3        8H2f-3        8H2f-2        8H2f-1    
   48    8H2f0         8H2f+1        8H2f+2        8H2f+3        9N1s          9N2s          9N3s          9N4s          9N5s          9N6s      
   49    9N7s          9N8s          9N9s          9N10s         9N11s         9N1pz         9N1py         9N1px         9N2pz         9N2py     
   50    9N2px         9N3pz         9N3py         9N3px         9N4pz         9N4py         9N4px         9N5pz         9N5py         9N5px     
   51    9N6pz         9N6py         9N6px         9N7pz         9N7py         9N7px         9N8pz         9N8py         9N8px         9N1d-2    
   52    9N1d-1        9N1d0         9N1d+1        9N1d+2        9N2d-2        9N2d-1        9N2d0         9N2d+1        9N2d+2        9N3d-2    
   53    9N3d-1        9N3d0         9N3d+1        9N3d+2        9N4d-2        9N4d-1        9N4d0         9N4d+1        9N4d+2        9N5d-2    
   54    9N5d-1        9N5d0         9N5d+1        9N5d+2        9N6d-2        9N6d-1        9N6d0         9N6d+1        9N6d+2        9N1f-3    
   55    9N1f-2        9N1f-1        9N1f0         9N1f+1        9N1f+2        9N1f+3        9N2f-3        9N2f-2        9N2f-1        9N2f0     
   56    9N2f+1        9N2f+2        9N2f+3        9N3f-3        9N3f-2        9N3f-1        9N3f0         9N3f+1        9N3f+2        9N3f+3    
   57    9N1g-4        9N1g-3        9N1g-2        9N1g-1        9N1g0         9N1g+1        9N1g+2        9N1g+3        9N1g+4        9N2g-4    
   58    9N2g-3        9N2g-2        9N2g-1        9N2g0         9N2g+1        9N2g+2        9N2g+3        9N2g+4       10H1s         10H2s      
   59   10H3s         10H4s         10H5s         10H1pz        10H1py        10H1px        10H2pz        10H2py        10H2px        10H3pz     
   60   10H3py        10H3px        10H4pz        10H4py        10H4px        10H1d-2       10H1d-1       10H1d0        10H1d+1       10H1d+2    
   61   10H2d-2       10H2d-1       10H2d0        10H2d+1       10H2d+2       10H3d-2       10H3d-1       10H3d0        10H3d+1       10H3d+2    
   62   10H1f-3       10H1f-2       10H1f-1       10H1f0        10H1f+1       10H1f+2       10H1f+3       10H2f-3       10H2f-2       10H2f-1    
   63   10H2f0        10H2f+1       10H2f+2       10H2f+3       11H1s         11H2s         11H3s         11H4s         11H5s         11H1pz     
   64   11H1py        11H1px        11H2pz        11H2py        11H2px        11H3pz        11H3py        11H3px        11H4pz        11H4py     
   65   11H4px        11H1d-2       11H1d-1       11H1d0        11H1d+1       11H1d+2       11H2d-2       11H2d-1       11H2d0        11H2d+1    
   66   11H2d+2       11H3d-2       11H3d-1       11H3d0        11H3d+1       11H3d+2       11H1f-3       11H1f-2       11H1f-1       11H1f0     
   67   11H1f+1       11H1f+2       11H1f+3       11H2f-3       11H2f-2       11H2f-1       11H2f0        11H2f+1       11H2f+2       11H2f+3    
   68   12H1s         12H2s         12H3s         12H4s         12H5s         12H1pz        12H1py        12H1px        12H2pz        12H2py     
   69   12H2px        12H3pz        12H3py        12H3px        12H4pz        12H4py        12H4px        12H1d-2       12H1d-1       12H1d0     
   70   12H1d+1       12H1d+2       12H2d-2       12H2d-1       12H2d0        12H2d+1       12H2d+2       12H3d-2       12H3d-1       12H3d0     
   71   12H3d+1       12H3d+2       12H1f-3       12H1f-2       12H1f-1       12H1f0        12H1f+1       12H1f+2       12H1f+3       12H2f-3    
   72   12H2f-2       12H2f-1       12H2f0        12H2f+1       12H2f+2       12H2f+3    
 
 Maximum number of basis functions per shell:   30
 Total number of basis functions:    726
 
 
 Fitting basis set for the correlation calculation:
 
   1  N  aug-cc-pvtz-ri [ 9s 7p 6d 4f 2g | 9s 7p 6d 4f 2g ]
   2  H  aug-cc-pvtz-ri [ 5s 4p 3d 2f | 5s 4p 3d 2f ]
   3  H  aug-cc-pvtz-ri [ 5s 4p 3d 2f | 5s 4p 3d 2f ]
   4  H  aug-cc-pvtz-ri [ 5s 4p 3d 2f | 5s 4p 3d 2f ]
   5  N  aug-cc-pvtz-ri [ 9s 7p 6d 4f 2g | 9s 7p 6d 4f 2g ]
   6  H  aug-cc-pvtz-ri [ 5s 4p 3d 2f | 5s 4p 3d 2f ]
   7  H  aug-cc-pvtz-ri [ 5s 4p 3d 2f | 5s 4p 3d 2f ]
   8  H  aug-cc-pvtz-ri [ 5s 4p 3d 2f | 5s 4p 3d 2f ]
   9  N  aug-cc-pvtz-ri [ 9s 7p 6d 4f 2g | 9s 7p 6d 4f 2g ]
  10  H  aug-cc-pvtz-ri [ 5s 4p 3d 2f | 5s 4p 3d 2f ]
  11  H  aug-cc-pvtz-ri [ 5s 4p 3d 2f | 5s 4p 3d 2f ]
  12  H  aug-cc-pvtz-ri [ 5s 4p 3d 2f | 5s 4p 3d 2f ]
 
 Basis functions:
            1             2             3             4             5             6             7             8             9            10
    0    1N1s          1N2s          1N3s          1N4s          1N5s          1N6s          1N7s          1N8s          1N9s          1N1pz     
    1    1N1py         1N1px         1N2pz         1N2py         1N2px         1N3pz         1N3py         1N3px         1N4pz         1N4py     
    2    1N4px         1N5pz         1N5py         1N5px         1N6pz         1N6py         1N6px         1N7pz         1N7py         1N7px     
    3    1N1d-2        1N1d-1        1N1d0         1N1d+1        1N1d+2        1N2d-2        1N2d-1        1N2d0         1N2d+1        1N2d+2    
    4    1N3d-2        1N3d-1        1N3d0         1N3d+1        1N3d+2        1N4d-2        1N4d-1        1N4d0         1N4d+1        1N4d+2    
    5    1N5d-2        1N5d-1        1N5d0         1N5d+1        1N5d+2        1N6d-2        1N6d-1        1N6d0         1N6d+1        1N6d+2    
    6    1N1f-3        1N1f-2        1N1f-1        1N1f0         1N1f+1        1N1f+2        1N1f+3        1N2f-3        1N2f-2        1N2f-1    
    7    1N2f0         1N2f+1        1N2f+2        1N2f+3        1N3f-3        1N3f-2        1N3f-1        1N3f0         1N3f+1        1N3f+2    
    8    1N3f+3        1N4f-3        1N4f-2        1N4f-1        1N4f0         1N4f+1        1N4f+2        1N4f+3        1N1g-4        1N1g-3    
    9    1N1g-2        1N1g-1        1N1g0         1N1g+1        1N1g+2        1N1g+3        1N1g+4        1N2g-4        1N2g-3        1N2g-2    
   10    1N2g-1        1N2g0         1N2g+1        1N2g+2        1N2g+3        1N2g+4        2H1s          2H2s          2H3s          2H4s      
   11    2H5s          2H1pz         2H1py         2H1px         2H2pz         2H2py         2H2px         2H3pz         2H3py         2H3px     
   12    2H4pz         2H4py         2H4px         2H1d-2        2H1d-1        2H1d0         2H1d+1        2H1d+2        2H2d-2        2H2d-1    
   13    2H2d0         2H2d+1        2H2d+2        2H3d-2        2H3d-1        2H3d0         2H3d+1        2H3d+2        2H1f-3        2H1f-2    
   14    2H1f-1        2H1f0         2H1f+1        2H1f+2        2H1f+3        2H2f-3        2H2f-2        2H2f-1        2H2f0         2H2f+1    
   15    2H2f+2        2H2f+3        3H1s          3H2s          3H3s          3H4s          3H5s          3H1pz         3H1py         3H1px     
   16    3H2pz         3H2py         3H2px         3H3pz         3H3py         3H3px         3H4pz         3H4py         3H4px         3H1d-2    
   17    3H1d-1        3H1d0         3H1d+1        3H1d+2        3H2d-2        3H2d-1        3H2d0         3H2d+1        3H2d+2        3H3d-2    
   18    3H3d-1        3H3d0         3H3d+1        3H3d+2        3H1f-3        3H1f-2        3H1f-1        3H1f0         3H1f+1        3H1f+2    
   19    3H1f+3        3H2f-3        3H2f-2        3H2f-1        3H2f0         3H2f+1        3H2f+2        3H2f+3        4H1s          4H2s      
   20    4H3s          4H4s          4H5s          4H1pz         4H1py         4H1px         4H2pz         4H2py         4H2px         4H3pz     
   21    4H3py         4H3px         4H4pz         4H4py         4H4px         4H1d-2        4H1d-1        4H1d0         4H1d+1        4H1d+2    
   22    4H2d-2        4H2d-1        4H2d0         4H2d+1        4H2d+2        4H3d-2        4H3d-1        4H3d0         4H3d+1        4H3d+2    
   23    4H1f-3        4H1f-2        4H1f-1        4H1f0         4H1f+1        4H1f+2        4H1f+3        4H2f-3        4H2f-2        4H2f-1    
   24    4H2f0         4H2f+1        4H2f+2        4H2f+3        5N1s          5N2s          5N3s          5N4s          5N5s          5N6s      
   25    5N7s          5N8s          5N9s          5N1pz         5N1py         5N1px         5N2pz         5N2py         5N2px         5N3pz     
   26    5N3py         5N3px         5N4pz         5N4py         5N4px         5N5pz         5N5py         5N5px         5N6pz         5N6py     
   27    5N6px         5N7pz         5N7py         5N7px         5N1d-2        5N1d-1        5N1d0         5N1d+1        5N1d+2        5N2d-2    
   28    5N2d-1        5N2d0         5N2d+1        5N2d+2        5N3d-2        5N3d-1        5N3d0         5N3d+1        5N3d+2        5N4d-2    
   29    5N4d-1        5N4d0         5N4d+1        5N4d+2        5N5d-2        5N5d-1        5N5d0         5N5d+1        5N5d+2        5N6d-2    
   30    5N6d-1        5N6d0         5N6d+1        5N6d+2        5N1f-3        5N1f-2        5N1f-1        5N1f0         5N1f+1        5N1f+2    
   31    5N1f+3        5N2f-3        5N2f-2        5N2f-1        5N2f0         5N2f+1        5N2f+2        5N2f+3        5N3f-3        5N3f-2    
   32    5N3f-1        5N3f0         5N3f+1        5N3f+2        5N3f+3        5N4f-3        5N4f-2        5N4f-1        5N4f0         5N4f+1    
   33    5N4f+2        5N4f+3        5N1g-4        5N1g-3        5N1g-2        5N1g-1        5N1g0         5N1g+1        5N1g+2        5N1g+3    
   34    5N1g+4        5N2g-4        5N2g-3        5N2g-2        5N2g-1        5N2g0         5N2g+1        5N2g+2        5N2g+3        5N2g+4    
   35    6H1s          6H2s          6H3s          6H4s          6H5s          6H1pz         6H1py         6H1px         6H2pz         6H2py     
   36    6H2px         6H3pz         6H3py         6H3px         6H4pz         6H4py         6H4px         6H1d-2        6H1d-1        6H1d0     
   37    6H1d+1        6H1d+2        6H2d-2        6H2d-1        6H2d0         6H2d+1        6H2d+2        6H3d-2        6H3d-1        6H3d0     
   38    6H3d+1        6H3d+2        6H1f-3        6H1f-2        6H1f-1        6H1f0         6H1f+1        6H1f+2        6H1f+3        6H2f-3    
   39    6H2f-2        6H2f-1        6H2f0         6H2f+1        6H2f+2        6H2f+3        7H1s          7H2s          7H3s          7H4s      
   40    7H5s          7H1pz         7H1py         7H1px         7H2pz         7H2py         7H2px         7H3pz         7H3py         7H3px     
   41    7H4pz         7H4py         7H4px         7H1d-2        7H1d-1        7H1d0         7H1d+1        7H1d+2        7H2d-2        7H2d-1    
   42    7H2d0         7H2d+1        7H2d+2        7H3d-2        7H3d-1        7H3d0         7H3d+1        7H3d+2        7H1f-3        7H1f-2    
   43    7H1f-1        7H1f0         7H1f+1        7H1f+2        7H1f+3        7H2f-3        7H2f-2        7H2f-1        7H2f0         7H2f+1    
   44    7H2f+2        7H2f+3        8H1s          8H2s          8H3s          8H4s          8H5s          8H1pz         8H1py         8H1px     
   45    8H2pz         8H2py         8H2px         8H3pz         8H3py         8H3px         8H4pz         8H4py         8H4px         8H1d-2    
   46    8H1d-1        8H1d0         8H1d+1        8H1d+2        8H2d-2        8H2d-1        8H2d0         8H2d+1        8H2d+2        8H3d-2    
   47    8H3d-1        8H3d0         8H3d+1        8H3d+2        8H1f-3        8H1f-2        8H1f-1        8H1f0         8H1f+1        8H1f+2    
   48    8H1f+3        8H2f-3        8H2f-2        8H2f-1        8H2f0         8H2f+1        8H2f+2        8H2f+3        9N1s          9N2s      
   49    9N3s          9N4s          9N5s          9N6s          9N7s          9N8s          9N9s          9N1pz         9N1py         9N1px     
   50    9N2pz         9N2py         9N2px         9N3pz         9N3py         9N3px         9N4pz         9N4py         9N4px         9N5pz     
   51    9N5py         9N5px         9N6pz         9N6py         9N6px         9N7pz         9N7py         9N7px         9N1d-2        9N1d-1    
   52    9N1d0         9N1d+1        9N1d+2        9N2d-2        9N2d-1        9N2d0         9N2d+1        9N2d+2        9N3d-2        9N3d-1    
   53    9N3d0         9N3d+1        9N3d+2        9N4d-2        9N4d-1        9N4d0         9N4d+1        9N4d+2        9N5d-2        9N5d-1    
   54    9N5d0         9N5d+1        9N5d+2        9N6d-2        9N6d-1        9N6d0         9N6d+1        9N6d+2        9N1f-3        9N1f-2    
   55    9N1f-1        9N1f0         9N1f+1        9N1f+2        9N1f+3        9N2f-3        9N2f-2        9N2f-1        9N2f0         9N2f+1    
   56    9N2f+2        9N2f+3        9N3f-3        9N3f-2        9N3f-1        9N3f0         9N3f+1        9N3f+2        9N3f+3        9N4f-3    
   57    9N4f-2        9N4f-1        9N4f0         9N4f+1        9N4f+2        9N4f+3        9N1g-4        9N1g-3        9N1g-2        9N1g-1    
   58    9N1g0         9N1g+1        9N1g+2        9N1g+3        9N1g+4        9N2g-4        9N2g-3        9N2g-2        9N2g-1        9N2g0     
   59    9N2g+1        9N2g+2        9N2g+3        9N2g+4       10H1s         10H2s         10H3s         10H4s         10H5s         10H1pz     
   60   10H1py        10H1px        10H2pz        10H2py        10H2px        10H3pz        10H3py        10H3px        10H4pz        10H4py     
   61   10H4px        10H1d-2       10H1d-1       10H1d0        10H1d+1       10H1d+2       10H2d-2       10H2d-1       10H2d0        10H2d+1    
   62   10H2d+2       10H3d-2       10H3d-1       10H3d0        10H3d+1       10H3d+2       10H1f-3       10H1f-2       10H1f-1       10H1f0     
   63   10H1f+1       10H1f+2       10H1f+3       10H2f-3       10H2f-2       10H2f-1       10H2f0        10H2f+1       10H2f+2       10H2f+3    
   64   11H1s         11H2s         11H3s         11H4s         11H5s         11H1pz        11H1py        11H1px        11H2pz        11H2py     
   65   11H2px        11H3pz        11H3py        11H3px        11H4pz        11H4py        11H4px        11H1d-2       11H1d-1       11H1d0     
   66   11H1d+1       11H1d+2       11H2d-2       11H2d-1       11H2d0        11H2d+1       11H2d+2       11H3d-2       11H3d-1       11H3d0     
   67   11H3d+1       11H3d+2       11H1f-3       11H1f-2       11H1f-1       11H1f0        11H1f+1       11H1f+2       11H1f+3       11H2f-3    
   68   11H2f-2       11H2f-1       11H2f0        11H2f+1       11H2f+2       11H2f+3       12H1s         12H2s         12H3s         12H4s      
   69   12H5s         12H1pz        12H1py        12H1px        12H2pz        12H2py        12H2px        12H3pz        12H3py        12H3px     
   70   12H4pz        12H4py        12H4px        12H1d-2       12H1d-1       12H1d0        12H1d+1       12H1d+2       12H2d-2       12H2d-1    
   71   12H2d0        12H2d+1       12H2d+2       12H3d-2       12H3d-1       12H3d0        12H3d+1       12H3d+2       12H1f-3       12H1f-2    
   72   12H1f-1       12H1f0        12H1f+1       12H1f+2       12H1f+3       12H2f-3       12H2f-2       12H2f-1       12H2f0        12H2f+1    
   73   12H2f+2       12H2f+3    
 
 Maximum number of basis functions per shell:   30
 Total number of basis functions:    732
 
 
 Old basis set for SCF restart
 
   1  N  def2-svp [ 7s 4p 1d | 3s 2p 1d ]
   2  H  def2-svp [ 4s 1p | 2s 1p ]
   3  H  def2-svp [ 4s 1p | 2s 1p ]
   4  H  def2-svp [ 4s 1p | 2s 1p ]
   5  N  def2-svp [ 7s 4p 1d | 3s 2p 1d ]
   6  H  def2-svp [ 4s 1p | 2s 1p ]
   7  H  def2-svp [ 4s 1p | 2s 1p ]
   8  H  def2-svp [ 4s 1p | 2s 1p ]
   9  N  def2-svp [ 7s 4p 1d | 3s 2p 1d ]
  10  H  def2-svp [ 4s 1p | 2s 1p ]
  11  H  def2-svp [ 4s 1p | 2s 1p ]
  12  H  def2-svp [ 4s 1p | 2s 1p ]
 
 Basis functions:
            1             2             3             4             5             6             7             8             9            10
    0    1N1s          1N2s          1N3s          1N1pz         1N1py         1N1px         1N2pz         1N2py         1N2px         1N1d-2    
    1    1N1d-1        1N1d0         1N1d+1        1N1d+2        2H1s          2H2s          2H1pz         2H1py         2H1px         3H1s      
    2    3H2s          3H1pz         3H1py         3H1px         4H1s          4H2s          4H1pz         4H1py         4H1px         5N1s      
    3    5N2s          5N3s          5N1pz         5N1py         5N1px         5N2pz         5N2py         5N2px         5N1d-2        5N1d-1    
    4    5N1d0         5N1d+1        5N1d+2        6H1s          6H2s          6H1pz         6H1py         6H1px         7H1s          7H2s      
    5    7H1pz         7H1py         7H1px         8H1s          8H2s          8H1pz         8H1py         8H1px         9N1s          9N2s      
    6    9N3s          9N1pz         9N1py         9N1px         9N2pz         9N2py         9N2px         9N1d-2        9N1d-1        9N1d0     
    7    9N1d+1        9N1d+2       10H1s         10H2s         10H1pz        10H1py        10H1px        11H1s         11H2s         11H1pz     
    8   11H1py        11H1px        12H1s         12H2s         12H1pz        12H1py        12H1px     
 
 Maximum number of basis functions per shell:   30
 Total number of basis functions:     87
 
 
 Calculation of prescreening integrals...
 CPU time [min]:     0.341                   Wall time [min]:     0.009
 
 Calculation of two-center Coulomb integrals...
   1% done.
  12% done.
  23% done.
  34% done.
  46% done.
  62% done.
  73% done.
  84% done.
  96% done.
 100% done.
 CPU time [min]:     0.357                   Wall time [min]:     0.009
 
 Cholesky decomposition of the inverse of the two-center matrix...
 CPU time [min]:     0.386                   Wall time [min]:     0.010
 
 Calculation of three-center Coulomb integrals...
   1% done.
  12% done.
  23% done.
  36% done.
  51% done.
  64% done.
  75% done.
  87% done.
 100% done.
 CPU time [min]:     3.638                   Wall time [min]:     0.062

 ************************ 2026-02-26 23:39:36 *************************
 Executing drpa...

 Three-index integral transformation and DF-MP2 calculation
 Allocation of 46.0 Gbytes of memory...
 
 Minimal memory requirement for (ai|P) integrals:       16.5 MB

 Calculating (ai|P) integrals...
 Number of integral batches:    1
 Occupied indices per batch:    4
 
 Transforming integrals of batch 1...
 CPU time [min]:     0.441                   Wall time [min]:     0.016
 
 
 
 Reference energy [au]:                       -56.218918538087
 DF-MP2 singlet pair energy [au]:              -0.187882001532
 DF-MP2 triplet pair energy [au]:              -0.053278653227
 DF-SCS-MP2 correlation energy [au]:           -0.243217952914
 DF-SCS-MP2 energy [au]:                      -56.462136491001
 DF-SOS-MP2 correlation energy [au]:           -0.244246601991
 DF-SOS-MP2 energy [au]:                      -56.463165140079
 DF-MP2 correlation energy [au]:               -0.241160654759
 DF-MP2 energy [au]:                          -56.460079192846
 
 ************************ 2026-02-26 23:39:37 *************************
                      Normal termination of mrcc.
 **********************************************************************
