 **********************************************************************
                          MRCC program system
 **********************************************************************
 
                              Written by
     Mihaly Kallay, Peter R. Nagy, David Mester, Laszlo Gyevi-Nagy,
        Jozsef Csoka, P. Bernat Szabo, Zoltan Rolik, Gyula Samu,
     Jozsef Csontos, Bence Hegely, Adam Ganyecz, Istvan Ladjanszki,
       Lorant Szegedy, Bence Ladoczki, Klara Petrov, Mate Farkas,
                    Pal D. Mezei, and Reka A. Horvath
 
        Department of Physical Chemistry and Materials Science
            Budapest University of Technology and Economics
                  Budapest P.O.Box 91, H-1521 Hungary
 
                              www.mrcc.hu
 
                     Release date: August 28, 2023

 ************************ 2026-02-26 16:13:07 *************************
 Executing minp...

 Reading input from MINP...
 
 Input file:
 
charge=0
mult=1
calc=LNO-CCSD(T)
basis=aug-cc-pVTZ
symm=off
verbosity=3
unit=angs
scfalg=locfit1
scfmaxit=200
scftol=8
basis_sm=def2-SVP
usedisk=0
aocd=extra
chtol=1d-6
iesttol=0.001
scfiguess=small
lcorthr=vtight
mem=46GB
ghost=serialno


geom=xyz
8

N      1.04470516527    1.04467805385    1.04472620470
H      1.86198065727    1.39631551807    0.53263274880
H      1.39638040304    0.53260276511    1.86208371977
H      0.53256262530    1.86191282917    1.39633599251
N      3.60995473454    1.52057191074    4.08577558721
H      4.42722968319    1.16893531034    4.59786809656
H      3.96163147006    2.03264798552    3.26841604077
H      3.09781293566    0.70333789254    3.73416418411
 
 
 Checking keyword combinations...
 
 Keywords:
 
 active=none
 agrid=ld0006-ld0590
 agrid_pssp=ld0006-ld0194
 agrid_pssp_sm=ld0006-ld0074
 basis=aug-cc-pvtz
 basis_sm=def2-svp
 basopt=off
 bfbasis=none
 bfgsmem=10
 bfgstol=1.0d-3
 boysalg=jacobi
 bpcompo=0.985
 bpcompv=0.98
 bpdfo=0.985
 bpocc=0.99999d0
 bppdo=0.999d0
 bppdv=0.98
 bpedo=0.99999d0
 bpedv=0.995d0
 calc=ccsd(t)
 ccmaxit=50
 ccprog=ccsd
 ccsdalg=dfdirect
 ccsdmkl=seq
 ccsdrest=off
 ccsdthreads=2
 cctol=5
 charge=0
 cialg=direct
 ciguess=off
 cmpgrp=auto
 comprest=off
 coord_sys=ric
 core=frozen
 corembed=off
 csapprox=off
 cvs=off
 dboc=off
 delocsomofact=
 dendec=cholesky
 dens=0
 denscorr=0
 dfalg=lineq
 dfbasis_cab=none
 dfbasis_cor=auto
 dfbasis_scf=auto
 dfbasis_scf_sm=auto
 dfintran=drpa
 dft=off
 dhexc=adc(2)
 diag=david
 docc=
 domrad=10.d0
 drpaalg=auto
 dual=off
 dual_df=off
 ecp=auto
 edisp=off
 edisp_embed=off
 embed=off
 epairestfact=off
 epairscale=1.d0
 etemp=300
 epert=none
 eps=
 espcharge=off
 excrad=1.0
 excrad_fin=0.100000000D-02
 fitting=coulomb
 fmm=off
 fmmord=8
 fnonorb=
 freq=off
 gamma=1.1d0
 gauss=spher
 geom=xyz
 gopt=off
 ghost=serialno
 gtol=7
 grdens=off
 grid=auto
 grid_sm=auto
 gridbatch_cos=2000
 grtol=10
 guido_ct=off
 hamilton=dc
 iface=none
 intalg=auto
 ip_ea=off
 itol=12
 laptol=1.d-3
 lccoporder=lccfirst
 lcorthr=vtight
 lccrest=off
 ldfgrad_tol=8
 lmp2dens=on
 lnoepso=1e-6
 lnoepsv=1e-7
 localcc=2021
 localcorrsymm=off
 locintrf=direct
 mact=
 maxact=off
 maxdim=200
 maxex=0
 maxmicroit=100
 mcscfiguess=hf
 mem=46gb
 mmprog=
 molden=on
 mpitasks=1
 mulmet=3
 mult=1
 nab=off
 nacto=0
 nactv=0
 naf_amp=3.16d-3
 naf_cor=1e-3
 naf_f12=off
 naf_scf=off
 nafalg=albe
 nafdens=off
 naftyp=jpq
 nchol=auto
 ndeps=1e-3
 nstate=1
 nsing=0
 nto=off
 ntrip=0
 num_grad=off
 occ=
 occri=off
 oniom=off
 oniom_eechg=off
 oniom_pcm=off
 oniom_qcorr=off
 optalg=
 optmaxit=50
 optetol=1e-6
 optex=0
 optgtol=1e-4
 optstol=1e-3
 orblocc=off
 orbloce=off
 orbloco=boys
 orblocv=pao
 orblocguess=cholesky
 osveps=-1.d0
 ovirt=off
 ovltol=1e-7
 ovosnorb=80.0
 pao_subsys_tol=1e-3
 pcm=off
 popul=off
 pressure=100000
 pssp=off
 ptfreq=0.0
 ptthreads=2
 qmreg=
 qmmm=off
 qro=off
 qscf=off
 redcost_exc=off
 redcost_tddft=0.985d0
 refdet=none
 rest=0
 rgrid=log3
 rism=off
 rohfcore=standard
 rohftype=semicanonical
 scfalg=locfit1
 scf_conv=auto
 scfdamp=0.0d0
 scfdamp_mode=off
 scfdamp_end=200
 scfdamp_dampstep=0.d0
 scfdamp_dtol=0.0d0
 scfdamp_maxfact=0.0d0
 scfdamp_minfact=0.0d0
 scfdiis=on
 scfdiis_dtol=0.0d0
 scfdiis_end=200
 scfdiis_start=2
 scfdiis_step=1
 scfdiis_watch=off
 scfdiis_wrange=10
 scfdiis_wlimit=5
 scfdiis_delmax=2
 scfdtol=9
 scfext=10
 scfguessdens=
 scfiguess=small
 scfloc=pm
 scflshift=0.20
 scflshift_end=8
 scflshift_dtol=0.0
 scflshift_gaptol=0.20
 scfmaxit=200
 scftype=
 scftol=8
 scspe=1.d0
 scsph=1.d0
 scsps=1.2d0
 scsps_t=1.2d0
 scspt=0.33333333333333
 scspt_t=0.33333333333333
 scspv=1.d0
 spairtol=-1.d0
 sqmprog=
 subminp=top
 symm=0
 talg=lapl
 temp=298.15
 test=off
 theodore=off
 tlmo=0.999
 tpao=0.94
 tprint=off
 uncontract=off
 unit=angs
 usedisk=0
 verbosity=3
 wpairtol=1.d-6
 
 Calculating integrals for small-basis SCF...

 ************************ 2026-02-26 16:13:08 *************************
 Executing integ...

 Allocation of 46.0 Gbytes of memory...
 
 
 Number of atoms:                  8
 Charge:                           0
 Number of electrons:             20
 Number of core electrons:         4
 Spin multiplicity:                1
 
                 Cartesian coordinates [bohr]      Atomic mass [AMU]  Z
   1  N     1.97420664    1.97415541    1.97424640    14.003074       7
   2  H     3.51863349    2.63865391    1.00653002     1.007825       1
   3  H     2.63877653    1.00647336    3.51882825     1.007825       1
   4  H     1.00639751    3.51850532    2.63869260     1.007825       1
   5  N     6.82182577    2.87346447    7.72099687    14.003074       7
   6  H     8.36625160    2.20896759    8.68871146     1.007825       1
   7  H     7.48639849    3.84114800    6.17641118     1.007825       1
   8  H     5.85401804    1.32911599    7.05654762     1.007825       1
 
 This molecule is an asymmetric top.
 
 Point group: C1  
 Computational point group: C1  
 
 Cartesian coordinates in standard orientation [bohr]
   1  N    -3.83260555   -0.06174637   -0.04678606
   2  H    -3.48952263    1.61051280   -0.96826906
   3  H    -2.33174091   -1.23553303   -0.41205990
   4  H    -3.81321919    0.31785083    1.85549942
   5  N     3.73685591   -0.00521896    0.13587966
   6  H     5.40661285   -0.26975124   -0.81554726
   7  H     3.10212009    1.77431891   -0.30476611
   8  H     2.45612880   -1.26695857   -0.59275471
 
 Nuclear repulsion energy [au]:         37.120111737452
 
Warning: for H atoms in the case of dfbasis_scf=auto the AO basis is set as dfbasis_scf instead of def2-qzvp(pd)-ri-jk because the AO basis is larger. Set the dfbasis_scf=def2-qzvp(pd)-ri-jk in MINP if that is desired.
 
 
 Basis set information:
 
 Maximum angular momentum: g
 Maximum number of contracted Gaussians:   10
 Maximum number of primitive Gaussians:    14
 Spherical harmonic GTOs are used.
 
 
 Conventional basis set:
 
   1  N  def2-svp [ 7s 4p 1d | 3s 2p 1d ]
   2  H  def2-svp [ 4s 1p | 2s 1p ]
   3  H  def2-svp [ 4s 1p | 2s 1p ]
   4  H  def2-svp [ 4s 1p | 2s 1p ]
   5  N  def2-svp [ 7s 4p 1d | 3s 2p 1d ]
   6  H  def2-svp [ 4s 1p | 2s 1p ]
   7  H  def2-svp [ 4s 1p | 2s 1p ]
   8  H  def2-svp [ 4s 1p | 2s 1p ]
 
 Basis functions:
            1             2             3             4             5             6             7             8             9            10
    0    1N1s          1N2s          1N3s          1N1pz         1N1py         1N1px         1N2pz         1N2py         1N2px         1N1d-2    
    1    1N1d-1        1N1d0         1N1d+1        1N1d+2        2H1s          2H2s          2H1pz         2H1py         2H1px         3H1s      
    2    3H2s          3H1pz         3H1py         3H1px         4H1s          4H2s          4H1pz         4H1py         4H1px         5N1s      
    3    5N2s          5N3s          5N1pz         5N1py         5N1px         5N2pz         5N2py         5N2px         5N1d-2        5N1d-1    
    4    5N1d0         5N1d+1        5N1d+2        6H1s          6H2s          6H1pz         6H1py         6H1px         7H1s          7H2s      
    5    7H1pz         7H1py         7H1px         8H1s          8H2s          8H1pz         8H1py         8H1px     
 
 Maximum number of basis functions per shell:    6
 Total number of basis functions:     58
 
 
 Fitting basis set for the SCF calculation:
 
   1  N  def2-qzvpp-ri-jk [ 14s 10p 6d 2f 1g | 10s 8p 4d 2f 1g ]
   2  H  def2-qzvpp [ 7s 3p 2d 1f | 4s 3p 2d 1f ]
   3  H  def2-qzvpp [ 7s 3p 2d 1f | 4s 3p 2d 1f ]
   4  H  def2-qzvpp [ 7s 3p 2d 1f | 4s 3p 2d 1f ]
   5  N  def2-qzvpp-ri-jk [ 14s 10p 6d 2f 1g | 10s 8p 4d 2f 1g ]
   6  H  def2-qzvpp [ 7s 3p 2d 1f | 4s 3p 2d 1f ]
   7  H  def2-qzvpp [ 7s 3p 2d 1f | 4s 3p 2d 1f ]
   8  H  def2-qzvpp [ 7s 3p 2d 1f | 4s 3p 2d 1f ]
 
 Basis functions:
            1             2             3             4             5             6             7             8             9            10
    0    1N1s          1N2s          1N3s          1N4s          1N5s          1N6s          1N7s          1N8s          1N9s          1N10s     
    1    1N1pz         1N1py         1N1px         1N2pz         1N2py         1N2px         1N3pz         1N3py         1N3px         1N4pz     
    2    1N4py         1N4px         1N5pz         1N5py         1N5px         1N6pz         1N6py         1N6px         1N7pz         1N7py     
    3    1N7px         1N8pz         1N8py         1N8px         1N1d-2        1N1d-1        1N1d0         1N1d+1        1N1d+2        1N2d-2    
    4    1N2d-1        1N2d0         1N2d+1        1N2d+2        1N3d-2        1N3d-1        1N3d0         1N3d+1        1N3d+2        1N4d-2    
    5    1N4d-1        1N4d0         1N4d+1        1N4d+2        1N1f-3        1N1f-2        1N1f-1        1N1f0         1N1f+1        1N1f+2    
    6    1N1f+3        1N2f-3        1N2f-2        1N2f-1        1N2f0         1N2f+1        1N2f+2        1N2f+3        1N1g-4        1N1g-3    
    7    1N1g-2        1N1g-1        1N1g0         1N1g+1        1N1g+2        1N1g+3        1N1g+4        2H1s          2H2s          2H3s      
    8    2H4s          2H1pz         2H1py         2H1px         2H2pz         2H2py         2H2px         2H3pz         2H3py         2H3px     
    9    2H1d-2        2H1d-1        2H1d0         2H1d+1        2H1d+2        2H2d-2        2H2d-1        2H2d0         2H2d+1        2H2d+2    
   10    2H1f-3        2H1f-2        2H1f-1        2H1f0         2H1f+1        2H1f+2        2H1f+3        3H1s          3H2s          3H3s      
   11    3H4s          3H1pz         3H1py         3H1px         3H2pz         3H2py         3H2px         3H3pz         3H3py         3H3px     
   12    3H1d-2        3H1d-1        3H1d0         3H1d+1        3H1d+2        3H2d-2        3H2d-1        3H2d0         3H2d+1        3H2d+2    
   13    3H1f-3        3H1f-2        3H1f-1        3H1f0         3H1f+1        3H1f+2        3H1f+3        4H1s          4H2s          4H3s      
   14    4H4s          4H1pz         4H1py         4H1px         4H2pz         4H2py         4H2px         4H3pz         4H3py         4H3px     
   15    4H1d-2        4H1d-1        4H1d0         4H1d+1        4H1d+2        4H2d-2        4H2d-1        4H2d0         4H2d+1        4H2d+2    
   16    4H1f-3        4H1f-2        4H1f-1        4H1f0         4H1f+1        4H1f+2        4H1f+3        5N1s          5N2s          5N3s      
   17    5N4s          5N5s          5N6s          5N7s          5N8s          5N9s          5N10s         5N1pz         5N1py         5N1px     
   18    5N2pz         5N2py         5N2px         5N3pz         5N3py         5N3px         5N4pz         5N4py         5N4px         5N5pz     
   19    5N5py         5N5px         5N6pz         5N6py         5N6px         5N7pz         5N7py         5N7px         5N8pz         5N8py     
   20    5N8px         5N1d-2        5N1d-1        5N1d0         5N1d+1        5N1d+2        5N2d-2        5N2d-1        5N2d0         5N2d+1    
   21    5N2d+2        5N3d-2        5N3d-1        5N3d0         5N3d+1        5N3d+2        5N4d-2        5N4d-1        5N4d0         5N4d+1    
   22    5N4d+2        5N1f-3        5N1f-2        5N1f-1        5N1f0         5N1f+1        5N1f+2        5N1f+3        5N2f-3        5N2f-2    
   23    5N2f-1        5N2f0         5N2f+1        5N2f+2        5N2f+3        5N1g-4        5N1g-3        5N1g-2        5N1g-1        5N1g0     
   24    5N1g+1        5N1g+2        5N1g+3        5N1g+4        6H1s          6H2s          6H3s          6H4s          6H1pz         6H1py     
   25    6H1px         6H2pz         6H2py         6H2px         6H3pz         6H3py         6H3px         6H1d-2        6H1d-1        6H1d0     
   26    6H1d+1        6H1d+2        6H2d-2        6H2d-1        6H2d0         6H2d+1        6H2d+2        6H1f-3        6H1f-2        6H1f-1    
   27    6H1f0         6H1f+1        6H1f+2        6H1f+3        7H1s          7H2s          7H3s          7H4s          7H1pz         7H1py     
   28    7H1px         7H2pz         7H2py         7H2px         7H3pz         7H3py         7H3px         7H1d-2        7H1d-1        7H1d0     
   29    7H1d+1        7H1d+2        7H2d-2        7H2d-1        7H2d0         7H2d+1        7H2d+2        7H1f-3        7H1f-2        7H1f-1    
   30    7H1f0         7H1f+1        7H1f+2        7H1f+3        8H1s          8H2s          8H3s          8H4s          8H1pz         8H1py     
   31    8H1px         8H2pz         8H2py         8H2px         8H3pz         8H3py         8H3px         8H1d-2        8H1d-1        8H1d0     
   32    8H1d+1        8H1d+2        8H2d-2        8H2d-1        8H2d0         8H2d+1        8H2d+2        8H1f-3        8H1f-2        8H1f-1    
   33    8H1f0         8H1f+1        8H1f+2        8H1f+3    
 
 Maximum number of basis functions per shell:   24
 Total number of basis functions:    334
 
 
 Initializing the SAD routines for the initial guess...
 Checking the files required for the initial guess...
 Density files have not been found for the initial guess.
 Generating SCFDENSITIES.N.def2-svp.0
 Generating SCFDENSITIES.H.def2-svp.0
 CPU time [min]:     0.211                   Wall time [min]:     0.135
 
 Character table for point group C1:
 
          E  
    A     1
 
 Number of basis functions per irrep:
    A      58
 
 
 Calculation of overlap integrals...
 CPU time [min]:     0.215                   Wall time [min]:     0.136
 
 Calculation of the square root of the overlap matrix...
 Minimum eigenvalue of the overlap matrix: 0.241558E-01
 CPU time [min]:     0.226                   Wall time [min]:     0.136
 
 Calculation of kinetic energy integrals...
 CPU time [min]:     0.227                   Wall time [min]:     0.136
 Calculation of dipole moment integrals...
 CPU time [min]:     0.227                   Wall time [min]:     0.136
 Calculation of nuclear attraction integrals...
 CPU time [min]:     0.228                   Wall time [min]:     0.136
 
 Calculation of prescreening integrals...
 CPU time [min]:     0.239                   Wall time [min]:     0.136
 
 Calculation of two-center Coulomb integrals...
   1% done.
  13% done.
  25% done.
  36% done.
  50% done.
  64% done.
  79% done.
  90% done.
 100% done.
 CPU time [min]:     0.251                   Wall time [min]:     0.136
 
 Cholesky decomposition of the two-center matrix...
 Reciprocal of the condition number:  0.112773E-04
 CPU time [min]:     0.269                   Wall time [min]:     0.137
 
 
 Running small-basis SCF...

 ************************ 2026-02-26 16:13:16 *************************
 Executing scf...

 @scfsetup: integrals calculated directly
            mrcc/integ direct run
 @scfsetup: calculating on full matrices
            not using symmetry adapted basis
 @scfsetup: diis switched on
 @scfsetup: number of steps to extrapolate from  10
 @scfsetup: tolerance in energy deviation    0.100000E-07
            tolerance in density deviation    0.100000E-08
 @scfsetup: maximum number of iterations: 200
 @scfsetup: restricted closed shell hf calc
 @scfsetup: starting scf from superposition of atomic densities
 @scfsetup: occupation set:
            from initial orbitals
 @scfsetup: Parameter-set for SCF acceleration: normal
 @scfsetup: diis runs from iteration:   2
 @scfsetup: diis runs to iteration: 200
 @scfsetup: diis runs in every iteration
 @scfsetup: diiswatch is disabled                   
 @scfsetup: diis dtol criteria to switch on:      0.0000E+00
           (or the iteration number below is reached)
 @scfsetup: static damping scheme
            iteration step criteria to turn damping off: 3
 @scfsetup: dynamic level shifting
            tolarance in HOMO-LUMO gap:  0.200
            tolarance in density deviation:     0.0000E+00
            iteration step criteria to turn level shifting off: 8
 Allocation of 46.0 Gbytes of memory...
 ======================================================================
 ITERATION STEP   1
 CPU time [min]:     0.016                   Wall time [min]:     0.009
 

 SCF control                  : initial
 Damping factor/level shift   : 0.000/0.200
 DIIS [start/end/frequency]   :   2 /200 /  1

 Constructing Fock-matrix...
 
 Pipek-Mezey localization...
 Step  Convergence
   1   5.792374977334
   2   0.995394118229
   3   0.048008971416
   4   0.000054276544
   5   0.000000149484
   6   0.000000001231
 CPU time [min]:     0.044                   Wall time [min]:     0.010
 
 Constructing local fitting domains...
 Maximum number of atoms in fitting domains:    5
 Average number of atoms in fitting domains:    4.2
 
 First step of Coulomb + first step of exchange...
 Exchange contribution is evaluated for MOs 1 to 10.
   3% done.
  14% done.
  25% done.
  43% done.
  55% done.
  69% done.
  84% done.
 100% done.
 Fitting and assembly step of exchange...
 CPU time [min]:     0.137                   Wall time [min]:     0.011
 
 Second step of Coulomb...
   3% done.
  14% done.
  25% done.
  43% done.
  55% done.
  69% done.
  84% done.
 100% done.
 CPU time [min]:     0.153                   Wall time [min]:     0.012
 
 Gradient norm:      2.3779E+00
 RMS of [F,P]:                                         0.05302395201251
 RMS of difference density:                            0.01934727016598
 Gap [au]:  0.64478286
 ALPHA OCC:  10
 BETA  OCC:  10
 
 ***HARTREE-FOCK ENERGY IN STEP   1 IS       -111.7186022418868561 [AU]
 ======================================================================
 ITERATION STEP   2
 CPU time [min]:     0.164                   Wall time [min]:     0.012
 

 SCF control                  : diis
 Damping factor/level shift   : 0.000/0.000
 DIIS [start/end/frequency]   :   2 /200 /  1

 Constructing Fock-matrix...
 
 Pipek-Mezey localization...
 Step  Convergence
   1   0.050848825998
   2   0.049546119879
   3   0.000208713931
   4   0.000000056008
   5   0.000000000054
 CPU time [min]:     0.187                   Wall time [min]:     0.012
 
 Constructing local fitting domains...
 Maximum number of atoms in fitting domains:    5
 Average number of atoms in fitting domains:    4.2
 
 First step of Coulomb + first step of exchange...
 Exchange contribution is evaluated for MOs 1 to 10.
   3% done.
  14% done.
  25% done.
  43% done.
  55% done.
  69% done.
  84% done.
 100% done.
 Fitting and assembly step of exchange...
 CPU time [min]:     0.266                   Wall time [min]:     0.014
 
 Second step of Coulomb...
   3% done.
  14% done.
  25% done.
  43% done.
  55% done.
  69% done.
  84% done.
 100% done.
 CPU time [min]:     0.282                   Wall time [min]:     0.014
 
 Gradient norm:      3.1688E-01
 DIIS is running in this iteration step.
 RMS of [F,P]:                                         0.01130099117317
 RMS of difference density:                            0.00884028945309
 Gap [au]:  0.52273514
 ALPHA OCC:  10
 BETA  OCC:  10
 
 ***HARTREE-FOCK ENERGY IN STEP   2 IS       -112.2461329828173859 [AU]
 
 Step comparison  Energy Drift [au]  DIIS error drift  Gradient drift
        1            5.2753E-01         4.1723E-02       2.0611E+00
        2            1.1225E+02         1.0000E-09       2.0611E+00
 ======================================================================
 ITERATION STEP   3
 CPU time [min]:     0.295                   Wall time [min]:     0.014
 

 SCF control                  : diis
 Damping factor/level shift   : 0.000/0.000
 DIIS [start/end/frequency]   :   2 /200 /  1

 Constructing Fock-matrix...
 
 Pipek-Mezey localization...
 Step  Convergence
   1   0.107987066601
   2   0.103978419047
   3   0.000351832923
   4   0.000000028890
   5   0.000000000102
 CPU time [min]:     0.318                   Wall time [min]:     0.014
 
 Constructing local fitting domains...
 Local fitting domains are unchanged.
 
 First step of Coulomb + first step of exchange...
 Exchange contribution is evaluated for MOs 1 to 10.
   3% done.
  14% done.
  25% done.
  43% done.
  55% done.
  69% done.
  84% done.
 100% done.
 Fitting and assembly step of exchange...
 CPU time [min]:     0.394                   Wall time [min]:     0.016
 
 Second step of Coulomb...
   3% done.
  14% done.
  25% done.
  43% done.
  55% done.
  69% done.
  84% done.
 100% done.
 CPU time [min]:     0.410                   Wall time [min]:     0.016
 
 Gradient norm:      1.1319E-01
 DIIS is running in this iteration step.
 RMS of [F,P]:                                         0.00537557892321
 RMS of difference density:                            0.00270136020933
 Gap [au]:  0.57250871
 ALPHA OCC:  10
 BETA  OCC:  10
 
 ***HARTREE-FOCK ENERGY IN STEP   3 IS       -112.2843840058991134 [AU]
 
 Step comparison  Energy Drift [au]  DIIS error drift  Gradient drift
        2            3.8251E-02         5.9254E-03       2.0369E-01
 ======================================================================
 ITERATION STEP   4
 CPU time [min]:     0.423                   Wall time [min]:     0.016
 

 SCF control                  : diis
 Damping factor/level shift   : 0.000/0.000
 DIIS [start/end/frequency]   :   2 /200 /  1

 Constructing Fock-matrix...
 
 Pipek-Mezey localization...
 Step  Convergence
   1   0.107419681441
   2   0.103735726789
   3   0.001033472319
   4   0.000000235618
   5   0.000000000184
 CPU time [min]:     0.446                   Wall time [min]:     0.017
 
 Constructing local fitting domains...
 Local fitting domains are unchanged.
 
 First step of Coulomb + first step of exchange...
 Exchange contribution is evaluated for MOs 1 to 10.
   3% done.
  14% done.
  25% done.
  43% done.
  55% done.
  69% done.
  84% done.
 100% done.
 Fitting and assembly step of exchange...
 CPU time [min]:     0.522                   Wall time [min]:     0.018
 
 Second step of Coulomb...
   3% done.
  14% done.
  25% done.
  43% done.
  55% done.
  69% done.
  84% done.
 100% done.
 CPU time [min]:     0.538                   Wall time [min]:     0.018
 
 Gradient norm:      2.3220E-02
 DIIS is running in this iteration step.
 RMS of [F,P]:                                         0.00067015814069
 RMS of difference density:                            0.00067391459506
 Gap [au]:  0.56465601
 ALPHA OCC:  10
 BETA  OCC:  10
 
 ***HARTREE-FOCK ENERGY IN STEP   4 IS       -112.2948184459367837 [AU]
 
 Step comparison  Energy Drift [au]  DIIS error drift  Gradient drift
        3            1.0434E-02         4.7054E-03       8.9974E-02
 ======================================================================
 ITERATION STEP   5
 CPU time [min]:     0.551                   Wall time [min]:     0.018
 

 SCF control                  : diis
 Damping factor/level shift   : 0.000/0.000
 DIIS [start/end/frequency]   :   2 /200 /  1

 Constructing Fock-matrix...
 
 Pipek-Mezey localization...
 Step  Convergence
   1   0.172695900194
   2   0.159846405649
   3   0.001385338561
   4   0.000000108514
   5   0.000000000083
 CPU time [min]:     0.574                   Wall time [min]:     0.019
 
 Constructing local fitting domains...
 Local fitting domains are unchanged.
 
 First step of Coulomb + first step of exchange...
 Exchange contribution is evaluated for MOs 1 to 10.
   3% done.
  14% done.
  25% done.
  43% done.
  55% done.
  69% done.
  84% done.
 100% done.
 Fitting and assembly step of exchange...
 CPU time [min]:     0.650                   Wall time [min]:     0.020
 
 Second step of Coulomb...
   3% done.
  14% done.
  25% done.
  43% done.
  55% done.
  69% done.
  84% done.
 100% done.
 CPU time [min]:     0.665                   Wall time [min]:     0.020
 
 Gradient norm:      1.8432E-03
 DIIS is running in this iteration step.
 RMS of [F,P]:                                         0.00011174027709
 RMS of difference density:                            0.00009385583583
 Gap [au]:  0.56504454
 ALPHA OCC:  10
 BETA  OCC:  10
 
 ***HARTREE-FOCK ENERGY IN STEP   5 IS       -112.2951399949897677 [AU]
 
 Step comparison  Energy Drift [au]  DIIS error drift  Gradient drift
        4            3.2155E-04         5.5842E-04       2.1377E-02
 ======================================================================
 ITERATION STEP   6
 CPU time [min]:     0.679                   Wall time [min]:     0.020
 

 SCF control                  : diis
 Damping factor/level shift   : 0.000/0.000
 DIIS [start/end/frequency]   :   2 /200 /  1

 Constructing Fock-matrix...
 
 Pipek-Mezey localization...
 Step  Convergence
   1   0.122624135143
   2   0.118037849685
   3   0.000173813557
   4   0.000000018693
   5   0.000000000005
 CPU time [min]:     0.702                   Wall time [min]:     0.021
 
 Constructing local fitting domains...
 Local fitting domains are unchanged.
 
 First step of Coulomb + first step of exchange...
 Exchange contribution is evaluated for MOs 1 to 10.
   3% done.
  14% done.
  25% done.
  43% done.
  55% done.
  69% done.
  84% done.
 100% done.
 Fitting and assembly step of exchange...
 CPU time [min]:     0.778                   Wall time [min]:     0.022
 
 Second step of Coulomb...
   3% done.
  14% done.
  25% done.
  43% done.
  55% done.
  69% done.
  84% done.
 100% done.
 CPU time [min]:     0.794                   Wall time [min]:     0.022
 
 Gradient norm:      3.4421E-04
 DIIS is running in this iteration step.
 RMS of [F,P]:                                         0.00001220347935
 RMS of difference density:                            0.00000926891544
 Gap [au]:  0.56497257
 ALPHA OCC:  10
 BETA  OCC:  10
 
 ***HARTREE-FOCK ENERGY IN STEP   6 IS       -112.2951468653820513 [AU]
 
 Step comparison  Energy Drift [au]  DIIS error drift  Gradient drift
        5            6.8704E-06         9.9537E-05       1.4990E-03
 ======================================================================
 ITERATION STEP   7
 CPU time [min]:     0.807                   Wall time [min]:     0.023
 

 SCF control                  : diis
 Damping factor/level shift   : 0.000/0.000
 DIIS [start/end/frequency]   :   2 /200 /  1

 Constructing Fock-matrix...
 
 Pipek-Mezey localization...
 Step  Convergence
   1   0.106571238413
   2   0.104084664160
   3   0.000263457819
   4   0.000000024025
   5   0.000000000030
   6   0.000000000000
 CPU time [min]:     0.831                   Wall time [min]:     0.023
 
 Constructing local fitting domains...
 Local fitting domains are unchanged.
 
 First step of Coulomb + first step of exchange...
 Exchange contribution is evaluated for MOs 1 to 10.
   3% done.
  14% done.
  25% done.
  43% done.
  55% done.
  69% done.
  84% done.
 100% done.
 Fitting and assembly step of exchange...
 CPU time [min]:     0.907                   Wall time [min]:     0.024
 
 Second step of Coulomb...
   3% done.
  14% done.
  25% done.
  43% done.
  55% done.
  69% done.
  84% done.
 100% done.
 CPU time [min]:     0.922                   Wall time [min]:     0.024
 
 Gradient norm:      1.2185E-04
 DIIS is running in this iteration step.
 RMS of [F,P]:                                         0.00000267716821
 RMS of difference density:                            0.00000224446143
 Gap [au]:  0.56499194
 ALPHA OCC:  10
 BETA  OCC:  10
 
 ***HARTREE-FOCK ENERGY IN STEP   7 IS       -112.2951468779128987 [AU]
 
 Step comparison  Energy Drift [au]  DIIS error drift  Gradient drift
        6            1.2531E-08         9.5263E-06       2.2236E-04
 ======================================================================
 ITERATION STEP   8
 CPU time [min]:     0.935                   Wall time [min]:     0.025
 

 SCF control                  : diis
 Damping factor/level shift   : 0.000/0.000
 DIIS [start/end/frequency]   :   2 /200 /  1

 Constructing Fock-matrix...
 
 Pipek-Mezey localization...
 Step  Convergence
   1   0.108978211683
   2   0.108844314826
   3   0.000125609291
   4   0.000000021481
   5   0.000000000029
   6   0.000000000000
 CPU time [min]:     0.958                   Wall time [min]:     0.025
 
 Constructing local fitting domains...
 Local fitting domains are unchanged.
 
 First step of Coulomb + first step of exchange...
 Exchange contribution is evaluated for MOs 1 to 10.
   3% done.
  14% done.
  25% done.
  43% done.
  55% done.
  69% done.
  84% done.
 100% done.
 Fitting and assembly step of exchange...
 CPU time [min]:     1.034                   Wall time [min]:     0.026
 
 Second step of Coulomb...
   3% done.
  14% done.
  25% done.
  43% done.
  55% done.
  69% done.
  84% done.
 100% done.
 CPU time [min]:     1.050                   Wall time [min]:     0.027
 
 Gradient norm:      4.4755E-05
 DIIS is running in this iteration step.
 RMS of [F,P]:                                         0.00000111482230
 RMS of difference density:                            0.00000105448146
 Gap [au]:  0.56497686
 ALPHA OCC:  10
 BETA  OCC:  10
 
 ***HARTREE-FOCK ENERGY IN STEP   8 IS       -112.2951468650384328 [AU]
 
 Step comparison  Energy Drift [au]  DIIS error drift  Gradient drift
        7           -1.2874E-08         1.5623E-06       7.7094E-05
 Warning! The energy goes uphill (with respect to previous step).
 ======================================================================
 ITERATION STEP   9
 CPU time [min]:     1.063                   Wall time [min]:     0.027
 

 SCF control                  : diis
 Damping factor/level shift   : 0.000/0.000
 DIIS [start/end/frequency]   :   2 /200 /  1

 Constructing Fock-matrix...
 
 Pipek-Mezey localization...
 Step  Convergence
   1   0.112332305923
   2   0.109229284967
   3   0.000059232124
   4   0.000000008166
   5   0.000000000012
   6   0.000000000000
 CPU time [min]:     1.086                   Wall time [min]:     0.027
 
 Constructing local fitting domains...
 Local fitting domains are unchanged.
 
 First step of Coulomb + first step of exchange...
 Exchange contribution is evaluated for MOs 1 to 10.
   3% done.
  14% done.
  25% done.
  43% done.
  55% done.
  69% done.
  84% done.
 100% done.
 Fitting and assembly step of exchange...
 CPU time [min]:     1.162                   Wall time [min]:     0.028
 
 Second step of Coulomb...
   3% done.
  14% done.
  25% done.
  43% done.
  55% done.
  69% done.
  84% done.
 100% done.
 CPU time [min]:     1.178                   Wall time [min]:     0.029
 
 Gradient norm:      5.6592E-06
 DIIS is running in this iteration step.
 RMS of [F,P]:                                         0.00000023454138
 RMS of difference density:                            0.00000047008806
 Gap [au]:  0.56497569
 ALPHA OCC:  10
 BETA  OCC:  10
 
 ***HARTREE-FOCK ENERGY IN STEP   9 IS       -112.2951468534606931 [AU]
 
 Step comparison  Energy Drift [au]  DIIS error drift  Gradient drift
        8           -1.1578E-08         8.8028E-07       3.9096E-05
 Warning! The energy goes uphill (with respect to previous step).
 ======================================================================
 ITERATION STEP  10
 CPU time [min]:     1.190                   Wall time [min]:     0.029
 

 SCF control                  : diis
 Damping factor/level shift   : 0.000/0.000
 DIIS [start/end/frequency]   :   2 /200 /  1

 Constructing Fock-matrix...
 
 Pipek-Mezey localization...
 Step  Convergence
   1   0.112564224553
   2   0.107212783802
   3   0.000068389070
   4   0.000000019786
   5   0.000000000086
   6   0.000000000000
 CPU time [min]:     1.214                   Wall time [min]:     0.029
 
 Constructing local fitting domains...
 Local fitting domains are unchanged.
 
 First step of Coulomb + first step of exchange...
 Exchange contribution is evaluated for MOs 1 to 10.
   3% done.
  14% done.
  25% done.
  43% done.
  55% done.
  69% done.
  84% done.
 100% done.
 Fitting and assembly step of exchange...
 CPU time [min]:     1.290                   Wall time [min]:     0.031
 
 Second step of Coulomb...
   3% done.
  14% done.
  25% done.
  43% done.
  55% done.
  69% done.
  84% done.
 100% done.
 CPU time [min]:     1.306                   Wall time [min]:     0.031
 
 Gradient norm:      1.7235E-06
 DIIS is running in this iteration step.
 RMS of [F,P]:                                         0.00000004910040
 RMS of difference density:                            0.00000013405264
 Gap [au]:  0.56497565
 ALPHA OCC:  10
 BETA  OCC:  10
 
 ***HARTREE-FOCK ENERGY IN STEP  10 IS       -112.2951468487836593 [AU]
 
 Step comparison  Energy Drift [au]  DIIS error drift  Gradient drift
        9           -4.6770E-09         1.8544E-07       3.9356E-06
 Warning! The energy goes uphill (with respect to previous step).
 ======================================================================
 ITERATION STEP  11
 CPU time [min]:     1.320                   Wall time [min]:     0.031
 

 SCF control                  : diis
 Damping factor/level shift   : 0.000/0.000
 DIIS [start/end/frequency]   :   2 /200 /  1

 Constructing Fock-matrix...
 
 Pipek-Mezey localization...
 Step  Convergence
   1   0.200150246283
   2   0.186668569655
   3   0.000952859244
   4   0.000000109232
   5   0.000000000147
   6   0.000000000001
 CPU time [min]:     1.343                   Wall time [min]:     0.032
 
 Constructing local fitting domains...
 Local fitting domains are unchanged.
 
 First step of Coulomb + first step of exchange...
 Exchange contribution is evaluated for MOs 1 to 10.
   3% done.
  14% done.
  25% done.
  43% done.
  55% done.
  69% done.
  84% done.
 100% done.
 Fitting and assembly step of exchange...
 CPU time [min]:     1.419                   Wall time [min]:     0.033
 
 Second step of Coulomb...
   3% done.
  14% done.
  25% done.
  43% done.
  55% done.
  69% done.
  84% done.
 100% done.
 CPU time [min]:     1.435                   Wall time [min]:     0.033
 
 Gradient norm:      4.2599E-07
 DIIS is running in this iteration step.
 RMS of [F,P]:                                         0.00000001284287
 RMS of difference density:                            0.00000003926973
 Gap [au]:  0.56497570
 ALPHA OCC:  10
 BETA  OCC:  10
 
 ***HARTREE-FOCK ENERGY IN STEP  11 IS       -112.2951468475108214 [AU]
 
 Step comparison  Energy Drift [au]  DIIS error drift  Gradient drift
       10           -1.2728E-09         3.6258E-08       1.2976E-06
 Warning! The energy goes uphill (with respect to previous step).
 ======================================================================
 ITERATION STEP  12
 CPU time [min]:     1.448                   Wall time [min]:     0.033
 

 SCF control                  : diis
 Damping factor/level shift   : 0.000/0.000
 DIIS [start/end/frequency]   :   2 /200 /  1

 Constructing Fock-matrix...
 
 Pipek-Mezey localization...
 Step  Convergence
   1   0.176567495181
   2   0.165395651065
   3   0.000964323002
   4   0.000000171989
   5   0.000000000193
   6   0.000000000000
 CPU time [min]:     1.472                   Wall time [min]:     0.034
 
 Constructing local fitting domains...
 Local fitting domains are unchanged.
 
 First step of Coulomb + first step of exchange...
 Exchange contribution is evaluated for MOs 1 to 10.
   3% done.
  14% done.
  25% done.
  43% done.
  55% done.
  69% done.
  84% done.
 100% done.
 Fitting and assembly step of exchange...
 CPU time [min]:     1.548                   Wall time [min]:     0.035
 
 Second step of Coulomb...
   3% done.
  14% done.
  25% done.
  43% done.
  55% done.
  69% done.
  84% done.
 100% done.
 CPU time [min]:     1.564                   Wall time [min]:     0.035
 
 Gradient norm:      6.1428E-08
 DIIS is running in this iteration step.
 RMS of [F,P]:                                         0.00000000200429
 RMS of difference density:                            0.00000000475871
 Gap [au]:  0.56497571
 ALPHA OCC:  10
 BETA  OCC:  10
 
 ***HARTREE-FOCK ENERGY IN STEP  12 IS       -112.2951468471578522 [AU]
 
 Step comparison  Energy Drift [au]  DIIS error drift  Gradient drift
       11           -3.5297E-10         1.0839E-08       3.6456E-07
 Warning! The energy goes uphill (with respect to previous step).
 ======================================================================
 ITERATION STEP  13
 CPU time [min]:     1.578                   Wall time [min]:     0.035
 

 SCF control                  : diis
 Damping factor/level shift   : 0.000/0.000
 DIIS [start/end/frequency]   :   2 /200 /  1

 Constructing Fock-matrix...
 
 Pipek-Mezey localization...
 Step  Convergence
   1   0.113114728906
   2   0.107309363724
   3   0.000085576778
   4   0.000000014068
   5   0.000000000068
   6   0.000000000000
 CPU time [min]:     1.601                   Wall time [min]:     0.036
 
 Constructing local fitting domains...
 Local fitting domains are unchanged.
 
 First step of Coulomb + first step of exchange...
 Exchange contribution is evaluated for MOs 1 to 10.
   3% done.
  14% done.
  25% done.
  43% done.
  55% done.
  69% done.
  84% done.
 100% done.
 Fitting and assembly step of exchange...
 CPU time [min]:     1.677                   Wall time [min]:     0.037
 
 Second step of Coulomb...
   3% done.
  14% done.
  25% done.
  43% done.
  55% done.
  69% done.
  84% done.
 100% done.
 CPU time [min]:     1.692                   Wall time [min]:     0.037
 
 Gradient norm:      6.3146E-09
 DIIS is running in this iteration step.
 RMS of [F,P]:                                         0.00000000024846
 RMS of difference density:                            0.00000000033617
 Gap [au]:  0.56497571
 ALPHA OCC:  10
 BETA  OCC:  10
 
 ***HARTREE-FOCK ENERGY IN STEP  13 IS       -112.2951468471728163 [AU]
 
 Step comparison  Energy Drift [au]  DIIS error drift  Gradient drift
       12            1.4964E-11         1.7558E-09       5.5113E-08
 
 The SCF iteration has converged.
 An extra iteration will be performed to calculate accurate SCF energy.
 
 ======================================================================
 ITERATION STEP  14
 CPU time [min]:     1.706                   Wall time [min]:     0.038
 

 SCF control                  : diis
 Damping factor/level shift   : 0.000/0.000
 DIIS [start/end/frequency]   :   2 /200 /  1

 Constructing Fock-matrix...
 
 Pipek-Mezey localization...
 Step  Convergence
   1   0.119188437719
   2   0.118990437384
   3   0.000177818891
   4   0.000000131746
   5   0.000000000233
   6   0.000000000000
 CPU time [min]:     1.730                   Wall time [min]:     0.038
 
 Constructing local fitting domains...
 Maximum number of atoms in fitting domains:    8
 Average number of atoms in fitting domains:    8.0
 
 First step of Coulomb + first step of exchange...
 Exchange contribution is evaluated for MOs 1 to 10.
   3% done.
  14% done.
  25% done.
  43% done.
  55% done.
  69% done.
  84% done.
 100% done.
 Fitting and assembly step of exchange...
 CPU time [min]:     1.825                   Wall time [min]:     0.040
 
 Second step of Coulomb...
   3% done.
  14% done.
  25% done.
  43% done.
  55% done.
  69% done.
  84% done.
 100% done.
 CPU time [min]:     1.841                   Wall time [min]:     0.040
 
 Gradient norm:      4.2579E-05
 RMS of [F,P]:                                         0.00000204913246
 RMS of difference density:                            0.00000152955424
 Gap [au]:  0.56496380
 ALPHA OCC:  10
 BETA  OCC:  10
 
 ***HARTREE-FOCK ENERGY IN STEP  14 IS       -112.2952598296760414 [AU]
 
 Step comparison  Energy Drift [au]  DIIS error drift  Gradient drift
       13            1.1298E-04        -2.0489E-06      -4.2572E-05
 Warning! The DIIS error goes uphill (with respect to previous step).
 Warning! The DIIS error goes uphill (with respect to step  13 ).
 Warning! The gradient goes uphill (with respect to previous step).
 Warning! The gradient goes uphill (with respect to step  13 ).
 ======================================================================
 
 SUCCESS...
 THE SCF ITERATION HAS CONVERGED!
 
                   A   
 FINAL ALPHA OCC:  10
 FINAL BETA  OCC:  10
 
 ***FINAL HARTREE-FOCK ENERGY:       -112.2952598296760414 [AU]
 
 Orbital energies [au]:
      Irrep         Alpha          Beta
    1   A        -15.546783     -15.546783
    2   A        -15.542799     -15.542799
    3   A         -1.119083      -1.119083
    4   A         -1.114343      -1.114343
    5   A         -0.626173      -0.626173
    6   A         -0.622616      -0.622616
    7   A         -0.618202      -0.618202
    8   A         -0.615810      -0.615810
    9   A         -0.426156      -0.426156
   10   A         -0.421372      -0.421372
 
   11   A          0.143592       0.143592
   12   A          0.204353       0.204353
   13   A          0.231142       0.231142
   14   A          0.259242       0.259242
   15   A          0.282087       0.282087
   16   A          0.355994       0.355994
   17   A          0.717249       0.717249
   18   A          0.729610       0.729610
   19   A          0.734628       0.734628
   20   A          0.741340       0.741340
   21   A          0.873629       0.873629
   22   A          0.906480       0.906480
   23   A          0.982916       0.982916
   24   A          1.005376       1.005376
   25   A          1.072329       1.072329
   26   A          1.090828       1.090828
   27   A          1.097727       1.097727
   28   A          1.122858       1.122858
   29   A          1.139126       1.139126
   30   A          1.180511       1.180511
   31   A          1.451764       1.451764
   32   A          1.455844       1.455844
   33   A          1.456878       1.456878
   34   A          1.468171       1.468171
   35   A          1.862486       1.862486
   36   A          1.864636       1.864636
   37   A          1.951903       1.951903
   38   A          1.968928       1.968928
   39   A          2.061825       2.061825
   40   A          2.066812       2.066812
   41   A          2.071242       2.071242
   42   A          2.078849       2.078849
   43   A          2.401846       2.401846
   44   A          2.412226       2.412226
   45   A          2.420613       2.420613
   46   A          2.427757       2.427757
   47   A          2.741701       2.741701
   48   A          2.746017       2.746017
   49   A          3.147836       3.147836
   50   A          3.148052       3.148052
   51   A          3.152483       3.152483
   52   A          3.157168       3.157168
   53   A          3.256622       3.256622
   54   A          3.259591       3.259591
   55   A          3.676738       3.676738
   56   A          3.686697       3.686697
   57   A          3.692285       3.692285
   58   A          3.717913       3.717913
 
 RETURNING FROM SCF ALGORITHM
 ======================================================================

 ************************ 2026-02-26 16:13:19 *************************
 Executing integ...

 Allocation of 46.0 Gbytes of memory...
 
 
 Number of atoms:                  8
 Charge:                           0
 Number of electrons:             20
 Number of core electrons:         4
 Spin multiplicity:                1
 
                 Cartesian coordinates [bohr]      Atomic mass [AMU]  Z
   1  N     1.97420664    1.97415541    1.97424640    14.003074       7
   2  H     3.51863349    2.63865391    1.00653002     1.007825       1
   3  H     2.63877653    1.00647336    3.51882825     1.007825       1
   4  H     1.00639751    3.51850532    2.63869260     1.007825       1
   5  N     6.82182577    2.87346447    7.72099687    14.003074       7
   6  H     8.36625160    2.20896759    8.68871146     1.007825       1
   7  H     7.48639849    3.84114800    6.17641118     1.007825       1
   8  H     5.85401804    1.32911599    7.05654762     1.007825       1
 
 This molecule is an asymmetric top.
 
 Point group: C1  
 Computational point group: C1  
 
 Cartesian coordinates in standard orientation [bohr]
   1  N    -3.83260555   -0.06174637   -0.04678606
   2  H    -3.48952263    1.61051280   -0.96826906
   3  H    -2.33174091   -1.23553303   -0.41205990
   4  H    -3.81321919    0.31785083    1.85549942
   5  N     3.73685591   -0.00521896    0.13587966
   6  H     5.40661285   -0.26975124   -0.81554726
   7  H     3.10212009    1.77431891   -0.30476611
   8  H     2.45612880   -1.26695857   -0.59275471
 
 Nuclear repulsion energy [au]:         37.120111737452
 
 
 Basis set information:
 
 Maximum angular momentum: g
 Maximum number of contracted Gaussians:   11
 Maximum number of primitive Gaussians:    14
 Spherical harmonic GTOs are used.
 
 
 Conventional basis set:
 
   1  N  aug-cc-pvtz [ 11s 6p 3d 2f | 5s 4p 3d 2f ]
   2  H  aug-cc-pvtz [ 6s 3p 2d | 4s 3p 2d ]
   3  H  aug-cc-pvtz [ 6s 3p 2d | 4s 3p 2d ]
   4  H  aug-cc-pvtz [ 6s 3p 2d | 4s 3p 2d ]
   5  N  aug-cc-pvtz [ 11s 6p 3d 2f | 5s 4p 3d 2f ]
   6  H  aug-cc-pvtz [ 6s 3p 2d | 4s 3p 2d ]
   7  H  aug-cc-pvtz [ 6s 3p 2d | 4s 3p 2d ]
   8  H  aug-cc-pvtz [ 6s 3p 2d | 4s 3p 2d ]
 
 Basis functions:
            1             2             3             4             5             6             7             8             9            10
    0    1N1s          1N2s          1N3s          1N4s          1N5s          1N1pz         1N1py         1N1px         1N2pz         1N2py     
    1    1N2px         1N3pz         1N3py         1N3px         1N4pz         1N4py         1N4px         1N1d-2        1N1d-1        1N1d0     
    2    1N1d+1        1N1d+2        1N2d-2        1N2d-1        1N2d0         1N2d+1        1N2d+2        1N3d-2        1N3d-1        1N3d0     
    3    1N3d+1        1N3d+2        1N1f-3        1N1f-2        1N1f-1        1N1f0         1N1f+1        1N1f+2        1N1f+3        1N2f-3    
    4    1N2f-2        1N2f-1        1N2f0         1N2f+1        1N2f+2        1N2f+3        2H1s          2H2s          2H3s          2H4s      
    5    2H1pz         2H1py         2H1px         2H2pz         2H2py         2H2px         2H3pz         2H3py         2H3px         2H1d-2    
    6    2H1d-1        2H1d0         2H1d+1        2H1d+2        2H2d-2        2H2d-1        2H2d0         2H2d+1        2H2d+2        3H1s      
    7    3H2s          3H3s          3H4s          3H1pz         3H1py         3H1px         3H2pz         3H2py         3H2px         3H3pz     
    8    3H3py         3H3px         3H1d-2        3H1d-1        3H1d0         3H1d+1        3H1d+2        3H2d-2        3H2d-1        3H2d0     
    9    3H2d+1        3H2d+2        4H1s          4H2s          4H3s          4H4s          4H1pz         4H1py         4H1px         4H2pz     
   10    4H2py         4H2px         4H3pz         4H3py         4H3px         4H1d-2        4H1d-1        4H1d0         4H1d+1        4H1d+2    
   11    4H2d-2        4H2d-1        4H2d0         4H2d+1        4H2d+2        5N1s          5N2s          5N3s          5N4s          5N5s      
   12    5N1pz         5N1py         5N1px         5N2pz         5N2py         5N2px         5N3pz         5N3py         5N3px         5N4pz     
   13    5N4py         5N4px         5N1d-2        5N1d-1        5N1d0         5N1d+1        5N1d+2        5N2d-2        5N2d-1        5N2d0     
   14    5N2d+1        5N2d+2        5N3d-2        5N3d-1        5N3d0         5N3d+1        5N3d+2        5N1f-3        5N1f-2        5N1f-1    
   15    5N1f0         5N1f+1        5N1f+2        5N1f+3        5N2f-3        5N2f-2        5N2f-1        5N2f0         5N2f+1        5N2f+2    
   16    5N2f+3        6H1s          6H2s          6H3s          6H4s          6H1pz         6H1py         6H1px         6H2pz         6H2py     
   17    6H2px         6H3pz         6H3py         6H3px         6H1d-2        6H1d-1        6H1d0         6H1d+1        6H1d+2        6H2d-2    
   18    6H2d-1        6H2d0         6H2d+1        6H2d+2        7H1s          7H2s          7H3s          7H4s          7H1pz         7H1py     
   19    7H1px         7H2pz         7H2py         7H2px         7H3pz         7H3py         7H3px         7H1d-2        7H1d-1        7H1d0     
   20    7H1d+1        7H1d+2        7H2d-2        7H2d-1        7H2d0         7H2d+1        7H2d+2        8H1s          8H2s          8H3s      
   21    8H4s          8H1pz         8H1py         8H1px         8H2pz         8H2py         8H2px         8H3pz         8H3py         8H3px     
   22    8H1d-2        8H1d-1        8H1d0         8H1d+1        8H1d+2        8H2d-2        8H2d-1        8H2d0         8H2d+1        8H2d+2    
 
 Maximum number of basis functions per shell:   15
 Total number of basis functions:    230
 
 
 Fitting basis set for the SCF calculation:
 
   1  N  aug-cc-pvtz-ri-jk [ 11s 8p 6d 3f 2g | 11s 8p 6d 3f 2g ]
   2  H  aug-cc-pvtz-ri-jk [ 5s 4p 3d 2f | 5s 4p 3d 2f ]
   3  H  aug-cc-pvtz-ri-jk [ 5s 4p 3d 2f | 5s 4p 3d 2f ]
   4  H  aug-cc-pvtz-ri-jk [ 5s 4p 3d 2f | 5s 4p 3d 2f ]
   5  N  aug-cc-pvtz-ri-jk [ 11s 8p 6d 3f 2g | 11s 8p 6d 3f 2g ]
   6  H  aug-cc-pvtz-ri-jk [ 5s 4p 3d 2f | 5s 4p 3d 2f ]
   7  H  aug-cc-pvtz-ri-jk [ 5s 4p 3d 2f | 5s 4p 3d 2f ]
   8  H  aug-cc-pvtz-ri-jk [ 5s 4p 3d 2f | 5s 4p 3d 2f ]
 
 Basis functions:
            1             2             3             4             5             6             7             8             9            10
    0    1N1s          1N2s          1N3s          1N4s          1N5s          1N6s          1N7s          1N8s          1N9s          1N10s     
    1    1N11s         1N1pz         1N1py         1N1px         1N2pz         1N2py         1N2px         1N3pz         1N3py         1N3px     
    2    1N4pz         1N4py         1N4px         1N5pz         1N5py         1N5px         1N6pz         1N6py         1N6px         1N7pz     
    3    1N7py         1N7px         1N8pz         1N8py         1N8px         1N1d-2        1N1d-1        1N1d0         1N1d+1        1N1d+2    
    4    1N2d-2        1N2d-1        1N2d0         1N2d+1        1N2d+2        1N3d-2        1N3d-1        1N3d0         1N3d+1        1N3d+2    
    5    1N4d-2        1N4d-1        1N4d0         1N4d+1        1N4d+2        1N5d-2        1N5d-1        1N5d0         1N5d+1        1N5d+2    
    6    1N6d-2        1N6d-1        1N6d0         1N6d+1        1N6d+2        1N1f-3        1N1f-2        1N1f-1        1N1f0         1N1f+1    
    7    1N1f+2        1N1f+3        1N2f-3        1N2f-2        1N2f-1        1N2f0         1N2f+1        1N2f+2        1N2f+3        1N3f-3    
    8    1N3f-2        1N3f-1        1N3f0         1N3f+1        1N3f+2        1N3f+3        1N1g-4        1N1g-3        1N1g-2        1N1g-1    
    9    1N1g0         1N1g+1        1N1g+2        1N1g+3        1N1g+4        1N2g-4        1N2g-3        1N2g-2        1N2g-1        1N2g0     
   10    1N2g+1        1N2g+2        1N2g+3        1N2g+4        2H1s          2H2s          2H3s          2H4s          2H5s          2H1pz     
   11    2H1py         2H1px         2H2pz         2H2py         2H2px         2H3pz         2H3py         2H3px         2H4pz         2H4py     
   12    2H4px         2H1d-2        2H1d-1        2H1d0         2H1d+1        2H1d+2        2H2d-2        2H2d-1        2H2d0         2H2d+1    
   13    2H2d+2        2H3d-2        2H3d-1        2H3d0         2H3d+1        2H3d+2        2H1f-3        2H1f-2        2H1f-1        2H1f0     
   14    2H1f+1        2H1f+2        2H1f+3        2H2f-3        2H2f-2        2H2f-1        2H2f0         2H2f+1        2H2f+2        2H2f+3    
   15    3H1s          3H2s          3H3s          3H4s          3H5s          3H1pz         3H1py         3H1px         3H2pz         3H2py     
   16    3H2px         3H3pz         3H3py         3H3px         3H4pz         3H4py         3H4px         3H1d-2        3H1d-1        3H1d0     
   17    3H1d+1        3H1d+2        3H2d-2        3H2d-1        3H2d0         3H2d+1        3H2d+2        3H3d-2        3H3d-1        3H3d0     
   18    3H3d+1        3H3d+2        3H1f-3        3H1f-2        3H1f-1        3H1f0         3H1f+1        3H1f+2        3H1f+3        3H2f-3    
   19    3H2f-2        3H2f-1        3H2f0         3H2f+1        3H2f+2        3H2f+3        4H1s          4H2s          4H3s          4H4s      
   20    4H5s          4H1pz         4H1py         4H1px         4H2pz         4H2py         4H2px         4H3pz         4H3py         4H3px     
   21    4H4pz         4H4py         4H4px         4H1d-2        4H1d-1        4H1d0         4H1d+1        4H1d+2        4H2d-2        4H2d-1    
   22    4H2d0         4H2d+1        4H2d+2        4H3d-2        4H3d-1        4H3d0         4H3d+1        4H3d+2        4H1f-3        4H1f-2    
   23    4H1f-1        4H1f0         4H1f+1        4H1f+2        4H1f+3        4H2f-3        4H2f-2        4H2f-1        4H2f0         4H2f+1    
   24    4H2f+2        4H2f+3        5N1s          5N2s          5N3s          5N4s          5N5s          5N6s          5N7s          5N8s      
   25    5N9s          5N10s         5N11s         5N1pz         5N1py         5N1px         5N2pz         5N2py         5N2px         5N3pz     
   26    5N3py         5N3px         5N4pz         5N4py         5N4px         5N5pz         5N5py         5N5px         5N6pz         5N6py     
   27    5N6px         5N7pz         5N7py         5N7px         5N8pz         5N8py         5N8px         5N1d-2        5N1d-1        5N1d0     
   28    5N1d+1        5N1d+2        5N2d-2        5N2d-1        5N2d0         5N2d+1        5N2d+2        5N3d-2        5N3d-1        5N3d0     
   29    5N3d+1        5N3d+2        5N4d-2        5N4d-1        5N4d0         5N4d+1        5N4d+2        5N5d-2        5N5d-1        5N5d0     
   30    5N5d+1        5N5d+2        5N6d-2        5N6d-1        5N6d0         5N6d+1        5N6d+2        5N1f-3        5N1f-2        5N1f-1    
   31    5N1f0         5N1f+1        5N1f+2        5N1f+3        5N2f-3        5N2f-2        5N2f-1        5N2f0         5N2f+1        5N2f+2    
   32    5N2f+3        5N3f-3        5N3f-2        5N3f-1        5N3f0         5N3f+1        5N3f+2        5N3f+3        5N1g-4        5N1g-3    
   33    5N1g-2        5N1g-1        5N1g0         5N1g+1        5N1g+2        5N1g+3        5N1g+4        5N2g-4        5N2g-3        5N2g-2    
   34    5N2g-1        5N2g0         5N2g+1        5N2g+2        5N2g+3        5N2g+4        6H1s          6H2s          6H3s          6H4s      
   35    6H5s          6H1pz         6H1py         6H1px         6H2pz         6H2py         6H2px         6H3pz         6H3py         6H3px     
   36    6H4pz         6H4py         6H4px         6H1d-2        6H1d-1        6H1d0         6H1d+1        6H1d+2        6H2d-2        6H2d-1    
   37    6H2d0         6H2d+1        6H2d+2        6H3d-2        6H3d-1        6H3d0         6H3d+1        6H3d+2        6H1f-3        6H1f-2    
   38    6H1f-1        6H1f0         6H1f+1        6H1f+2        6H1f+3        6H2f-3        6H2f-2        6H2f-1        6H2f0         6H2f+1    
   39    6H2f+2        6H2f+3        7H1s          7H2s          7H3s          7H4s          7H5s          7H1pz         7H1py         7H1px     
   40    7H2pz         7H2py         7H2px         7H3pz         7H3py         7H3px         7H4pz         7H4py         7H4px         7H1d-2    
   41    7H1d-1        7H1d0         7H1d+1        7H1d+2        7H2d-2        7H2d-1        7H2d0         7H2d+1        7H2d+2        7H3d-2    
   42    7H3d-1        7H3d0         7H3d+1        7H3d+2        7H1f-3        7H1f-2        7H1f-1        7H1f0         7H1f+1        7H1f+2    
   43    7H1f+3        7H2f-3        7H2f-2        7H2f-1        7H2f0         7H2f+1        7H2f+2        7H2f+3        8H1s          8H2s      
   44    8H3s          8H4s          8H5s          8H1pz         8H1py         8H1px         8H2pz         8H2py         8H2px         8H3pz     
   45    8H3py         8H3px         8H4pz         8H4py         8H4px         8H1d-2        8H1d-1        8H1d0         8H1d+1        8H1d+2    
   46    8H2d-2        8H2d-1        8H2d0         8H2d+1        8H2d+2        8H3d-2        8H3d-1        8H3d0         8H3d+1        8H3d+2    
   47    8H1f-3        8H1f-2        8H1f-1        8H1f0         8H1f+1        8H1f+2        8H1f+3        8H2f-3        8H2f-2        8H2f-1    
   48    8H2f0         8H2f+1        8H2f+2        8H2f+3    
 
 Maximum number of basis functions per shell:   30
 Total number of basis functions:    484
 
 
 Fitting basis set for the correlation calculation:
 
   1  N  aug-cc-pvtz-ri [ 9s 7p 6d 4f 2g | 9s 7p 6d 4f 2g ]
   2  H  aug-cc-pvtz-ri [ 5s 4p 3d 2f | 5s 4p 3d 2f ]
   3  H  aug-cc-pvtz-ri [ 5s 4p 3d 2f | 5s 4p 3d 2f ]
   4  H  aug-cc-pvtz-ri [ 5s 4p 3d 2f | 5s 4p 3d 2f ]
   5  N  aug-cc-pvtz-ri [ 9s 7p 6d 4f 2g | 9s 7p 6d 4f 2g ]
   6  H  aug-cc-pvtz-ri [ 5s 4p 3d 2f | 5s 4p 3d 2f ]
   7  H  aug-cc-pvtz-ri [ 5s 4p 3d 2f | 5s 4p 3d 2f ]
   8  H  aug-cc-pvtz-ri [ 5s 4p 3d 2f | 5s 4p 3d 2f ]
 
 Basis functions:
            1             2             3             4             5             6             7             8             9            10
    0    1N1s          1N2s          1N3s          1N4s          1N5s          1N6s          1N7s          1N8s          1N9s          1N1pz     
    1    1N1py         1N1px         1N2pz         1N2py         1N2px         1N3pz         1N3py         1N3px         1N4pz         1N4py     
    2    1N4px         1N5pz         1N5py         1N5px         1N6pz         1N6py         1N6px         1N7pz         1N7py         1N7px     
    3    1N1d-2        1N1d-1        1N1d0         1N1d+1        1N1d+2        1N2d-2        1N2d-1        1N2d0         1N2d+1        1N2d+2    
    4    1N3d-2        1N3d-1        1N3d0         1N3d+1        1N3d+2        1N4d-2        1N4d-1        1N4d0         1N4d+1        1N4d+2    
    5    1N5d-2        1N5d-1        1N5d0         1N5d+1        1N5d+2        1N6d-2        1N6d-1        1N6d0         1N6d+1        1N6d+2    
    6    1N1f-3        1N1f-2        1N1f-1        1N1f0         1N1f+1        1N1f+2        1N1f+3        1N2f-3        1N2f-2        1N2f-1    
    7    1N2f0         1N2f+1        1N2f+2        1N2f+3        1N3f-3        1N3f-2        1N3f-1        1N3f0         1N3f+1        1N3f+2    
    8    1N3f+3        1N4f-3        1N4f-2        1N4f-1        1N4f0         1N4f+1        1N4f+2        1N4f+3        1N1g-4        1N1g-3    
    9    1N1g-2        1N1g-1        1N1g0         1N1g+1        1N1g+2        1N1g+3        1N1g+4        1N2g-4        1N2g-3        1N2g-2    
   10    1N2g-1        1N2g0         1N2g+1        1N2g+2        1N2g+3        1N2g+4        2H1s          2H2s          2H3s          2H4s      
   11    2H5s          2H1pz         2H1py         2H1px         2H2pz         2H2py         2H2px         2H3pz         2H3py         2H3px     
   12    2H4pz         2H4py         2H4px         2H1d-2        2H1d-1        2H1d0         2H1d+1        2H1d+2        2H2d-2        2H2d-1    
   13    2H2d0         2H2d+1        2H2d+2        2H3d-2        2H3d-1        2H3d0         2H3d+1        2H3d+2        2H1f-3        2H1f-2    
   14    2H1f-1        2H1f0         2H1f+1        2H1f+2        2H1f+3        2H2f-3        2H2f-2        2H2f-1        2H2f0         2H2f+1    
   15    2H2f+2        2H2f+3        3H1s          3H2s          3H3s          3H4s          3H5s          3H1pz         3H1py         3H1px     
   16    3H2pz         3H2py         3H2px         3H3pz         3H3py         3H3px         3H4pz         3H4py         3H4px         3H1d-2    
   17    3H1d-1        3H1d0         3H1d+1        3H1d+2        3H2d-2        3H2d-1        3H2d0         3H2d+1        3H2d+2        3H3d-2    
   18    3H3d-1        3H3d0         3H3d+1        3H3d+2        3H1f-3        3H1f-2        3H1f-1        3H1f0         3H1f+1        3H1f+2    
   19    3H1f+3        3H2f-3        3H2f-2        3H2f-1        3H2f0         3H2f+1        3H2f+2        3H2f+3        4H1s          4H2s      
   20    4H3s          4H4s          4H5s          4H1pz         4H1py         4H1px         4H2pz         4H2py         4H2px         4H3pz     
   21    4H3py         4H3px         4H4pz         4H4py         4H4px         4H1d-2        4H1d-1        4H1d0         4H1d+1        4H1d+2    
   22    4H2d-2        4H2d-1        4H2d0         4H2d+1        4H2d+2        4H3d-2        4H3d-1        4H3d0         4H3d+1        4H3d+2    
   23    4H1f-3        4H1f-2        4H1f-1        4H1f0         4H1f+1        4H1f+2        4H1f+3        4H2f-3        4H2f-2        4H2f-1    
   24    4H2f0         4H2f+1        4H2f+2        4H2f+3        5N1s          5N2s          5N3s          5N4s          5N5s          5N6s      
   25    5N7s          5N8s          5N9s          5N1pz         5N1py         5N1px         5N2pz         5N2py         5N2px         5N3pz     
   26    5N3py         5N3px         5N4pz         5N4py         5N4px         5N5pz         5N5py         5N5px         5N6pz         5N6py     
   27    5N6px         5N7pz         5N7py         5N7px         5N1d-2        5N1d-1        5N1d0         5N1d+1        5N1d+2        5N2d-2    
   28    5N2d-1        5N2d0         5N2d+1        5N2d+2        5N3d-2        5N3d-1        5N3d0         5N3d+1        5N3d+2        5N4d-2    
   29    5N4d-1        5N4d0         5N4d+1        5N4d+2        5N5d-2        5N5d-1        5N5d0         5N5d+1        5N5d+2        5N6d-2    
   30    5N6d-1        5N6d0         5N6d+1        5N6d+2        5N1f-3        5N1f-2        5N1f-1        5N1f0         5N1f+1        5N1f+2    
   31    5N1f+3        5N2f-3        5N2f-2        5N2f-1        5N2f0         5N2f+1        5N2f+2        5N2f+3        5N3f-3        5N3f-2    
   32    5N3f-1        5N3f0         5N3f+1        5N3f+2        5N3f+3        5N4f-3        5N4f-2        5N4f-1        5N4f0         5N4f+1    
   33    5N4f+2        5N4f+3        5N1g-4        5N1g-3        5N1g-2        5N1g-1        5N1g0         5N1g+1        5N1g+2        5N1g+3    
   34    5N1g+4        5N2g-4        5N2g-3        5N2g-2        5N2g-1        5N2g0         5N2g+1        5N2g+2        5N2g+3        5N2g+4    
   35    6H1s          6H2s          6H3s          6H4s          6H5s          6H1pz         6H1py         6H1px         6H2pz         6H2py     
   36    6H2px         6H3pz         6H3py         6H3px         6H4pz         6H4py         6H4px         6H1d-2        6H1d-1        6H1d0     
   37    6H1d+1        6H1d+2        6H2d-2        6H2d-1        6H2d0         6H2d+1        6H2d+2        6H3d-2        6H3d-1        6H3d0     
   38    6H3d+1        6H3d+2        6H1f-3        6H1f-2        6H1f-1        6H1f0         6H1f+1        6H1f+2        6H1f+3        6H2f-3    
   39    6H2f-2        6H2f-1        6H2f0         6H2f+1        6H2f+2        6H2f+3        7H1s          7H2s          7H3s          7H4s      
   40    7H5s          7H1pz         7H1py         7H1px         7H2pz         7H2py         7H2px         7H3pz         7H3py         7H3px     
   41    7H4pz         7H4py         7H4px         7H1d-2        7H1d-1        7H1d0         7H1d+1        7H1d+2        7H2d-2        7H2d-1    
   42    7H2d0         7H2d+1        7H2d+2        7H3d-2        7H3d-1        7H3d0         7H3d+1        7H3d+2        7H1f-3        7H1f-2    
   43    7H1f-1        7H1f0         7H1f+1        7H1f+2        7H1f+3        7H2f-3        7H2f-2        7H2f-1        7H2f0         7H2f+1    
   44    7H2f+2        7H2f+3        8H1s          8H2s          8H3s          8H4s          8H5s          8H1pz         8H1py         8H1px     
   45    8H2pz         8H2py         8H2px         8H3pz         8H3py         8H3px         8H4pz         8H4py         8H4px         8H1d-2    
   46    8H1d-1        8H1d0         8H1d+1        8H1d+2        8H2d-2        8H2d-1        8H2d0         8H2d+1        8H2d+2        8H3d-2    
   47    8H3d-1        8H3d0         8H3d+1        8H3d+2        8H1f-3        8H1f-2        8H1f-1        8H1f0         8H1f+1        8H1f+2    
   48    8H1f+3        8H2f-3        8H2f-2        8H2f-1        8H2f0         8H2f+1        8H2f+2        8H2f+3    
 
 Maximum number of basis functions per shell:   30
 Total number of basis functions:    488
 
 
 Old basis set for SCF restart
 
   1  N  def2-svp [ 7s 4p 1d | 3s 2p 1d ]
   2  H  def2-svp [ 4s 1p | 2s 1p ]
   3  H  def2-svp [ 4s 1p | 2s 1p ]
   4  H  def2-svp [ 4s 1p | 2s 1p ]
   5  N  def2-svp [ 7s 4p 1d | 3s 2p 1d ]
   6  H  def2-svp [ 4s 1p | 2s 1p ]
   7  H  def2-svp [ 4s 1p | 2s 1p ]
   8  H  def2-svp [ 4s 1p | 2s 1p ]
 
 Basis functions:
            1             2             3             4             5             6             7             8             9            10
    0    1N1s          1N2s          1N3s          1N1pz         1N1py         1N1px         1N2pz         1N2py         1N2px         1N1d-2    
    1    1N1d-1        1N1d0         1N1d+1        1N1d+2        2H1s          2H2s          2H1pz         2H1py         2H1px         3H1s      
    2    3H2s          3H1pz         3H1py         3H1px         4H1s          4H2s          4H1pz         4H1py         4H1px         5N1s      
    3    5N2s          5N3s          5N1pz         5N1py         5N1px         5N2pz         5N2py         5N2px         5N1d-2        5N1d-1    
    4    5N1d0         5N1d+1        5N1d+2        6H1s          6H2s          6H1pz         6H1py         6H1px         7H1s          7H2s      
    5    7H1pz         7H1py         7H1px         8H1s          8H2s          8H1pz         8H1py         8H1px     
 
 Maximum number of basis functions per shell:   30
 Total number of basis functions:     58
 
 
 Character table for point group C1:
 
          E  
    A     1
 
 Number of basis functions per irrep:
    A     230
 
 
 Calculation of overlap integrals...
 CPU time [min]:     0.166                   Wall time [min]:     0.005
 
 Calculation of the square root of the overlap matrix...
 Minimum eigenvalue of the overlap matrix: 0.174107E-03
 CPU time [min]:     0.190                   Wall time [min]:     0.006
 
 Calculation of kinetic energy integrals...
 CPU time [min]:     0.191                   Wall time [min]:     0.006
 Calculation of dipole moment integrals...
 CPU time [min]:     0.193                   Wall time [min]:     0.006
 Calculation of nuclear attraction integrals...
 CPU time [min]:     0.195                   Wall time [min]:     0.006
 Calculation of overlap integrals...
 CPU time [min]:     0.198                   Wall time [min]:     0.006
 
 Calculation of prescreening integrals...
 CPU time [min]:     0.353                   Wall time [min]:     0.009
 
 Calculation of two-center Coulomb integrals...
   1% done.
  12% done.
  25% done.
  40% done.
  51% done.
  66% done.
  77% done.
  88% done.
 100% done.
 CPU time [min]:     0.365                   Wall time [min]:     0.009
 
 Cholesky decomposition of the two-center matrix...
 Reciprocal of the condition number:  0.336011E-04
 CPU time [min]:     0.377                   Wall time [min]:     0.009
 

 ************************ 2026-02-26 16:13:20 *************************
 Executing scf...

 @scfsetup: integrals calculated directly
            mrcc/integ direct run
 @scfsetup: calculating on full matrices
            not using symmetry adapted basis
 @scfsetup: diis switched on
 @scfsetup: number of steps to extrapolate from  10
 @scfsetup: tolerance in energy deviation    0.100000E-07
            tolerance in density deviation    0.100000E-08
 @scfsetup: maximum number of iterations: 200
 @scfsetup: restricted closed shell hf calc
 @scfsetup: restarting scf from SCFDENSITIES file
 @scfsetup: occupation set:
            from initial orbitals
 @scfsetup: Parameter-set for SCF acceleration: normal
 @scfsetup: diis runs from iteration:   2
 @scfsetup: diis runs to iteration: 200
 @scfsetup: diis runs in every iteration
 @scfsetup: diiswatch is disabled                   
 @scfsetup: diis dtol criteria to switch on:      0.0000E+00
           (or the iteration number below is reached)
 @scfsetup: static damping scheme
            iteration step criteria to turn damping off: 3
 @scfsetup: dynamic level shifting
            tolarance in HOMO-LUMO gap:  0.200
            tolarance in density deviation:     0.0000E+00
            iteration step criteria to turn level shifting off: 8
 Allocation of 46.0 Gbytes of memory...
 ======================================================================
 ITERATION STEP   1
 CPU time [min]:     0.042                   Wall time [min]:     0.010
 

 SCF control                  : initial
 Damping factor/level shift   : 0.000/0.200
 DIIS [start/end/frequency]   :   2 /200 /  1

 Constructing Fock-matrix...
 Inverse square root: The matrix is not positive definite!
 
 Pipek-Mezey localization...
 Step  Convergence
   1   3.108465464412
   2   0.669675676382
   3   0.135293281717
   4   0.029931345097
   5   0.003349953996
   6   0.000795532951
   7   0.000234202627
   8   0.000078239398
   9   0.000026765446
  10   0.000009270703
  11   0.000003213026
  12   0.000001115246
  13   0.000000386999
  14   0.000000134327
  15   0.000000046620
  16   0.000000016181
  17   0.000000005616
 CPU time [min]:     0.071                   Wall time [min]:     0.010
 
 Constructing local fitting domains...
 Maximum number of atoms in fitting domains:    8
 Average number of atoms in fitting domains:    8.0
 
 First step of Coulomb + first step of exchange...
 Exchange contribution is evaluated for MOs 1 to 10.
   1% done.
  13% done.
  25% done.
  41% done.
  52% done.
  64% done.
  81% done.
  92% done.
 100% done.
 Fitting and assembly step of exchange...
 CPU time [min]:     0.263                   Wall time [min]:     0.013
 
 Second step of Coulomb...
   1% done.
  13% done.
  25% done.
  41% done.
  52% done.
  64% done.
  81% done.
  92% done.
 100% done.
 CPU time [min]:     0.304                   Wall time [min]:     0.014
 
 Gradient norm:      4.3000E-01
 RMS of [F,P]:                                         0.00487982487024
 RMS of difference density:                            0.00898542993700
 Gap [au]:  0.45244765
 ALPHA OCC:  10
 BETA  OCC:  10
 
 ***HARTREE-FOCK ENERGY IN STEP   1 IS       -112.3930652954055631 [AU]
 ======================================================================
 ITERATION STEP   2
 CPU time [min]:     0.335                   Wall time [min]:     0.015
 

 SCF control                  : diis
 Damping factor/level shift   : 0.000/0.000
 DIIS [start/end/frequency]   :   2 /200 /  1

 Constructing Fock-matrix...
 
 Pipek-Mezey localization...
 Step  Convergence
   1   0.081060505070
   2   0.081428283746
   3   0.000399331003
   4   0.000033195439
   5   0.000009904489
   6   0.000003155577
   7   0.000001023188
   8   0.000000333570
   9   0.000000108934
  10   0.000000035594
  11   0.000000011632
  12   0.000000003802
 CPU time [min]:     0.358                   Wall time [min]:     0.015
 
 Constructing local fitting domains...
 Maximum number of atoms in fitting domains:    8
 Average number of atoms in fitting domains:    8.0
 
 First step of Coulomb + first step of exchange...
 Exchange contribution is evaluated for MOs 1 to 10.
   1% done.
  13% done.
  25% done.
  41% done.
  52% done.
  64% done.
  81% done.
  92% done.
 100% done.
 Fitting and assembly step of exchange...
 CPU time [min]:     0.544                   Wall time [min]:     0.018
 
 Second step of Coulomb...
   1% done.
  13% done.
  25% done.
  41% done.
  52% done.
  64% done.
  81% done.
  92% done.
 100% done.
 CPU time [min]:     0.584                   Wall time [min]:     0.019
 
 Gradient norm:      2.9851E-02
 DIIS is running in this iteration step.
 RMS of [F,P]:                                         0.00036900101262
 RMS of difference density:                            0.00098088280642
 Gap [au]:  0.45443353
 ALPHA OCC:  10
 BETA  OCC:  10
 
 ***HARTREE-FOCK ENERGY IN STEP   2 IS       -112.4348899447478658 [AU]
 
 Step comparison  Energy Drift [au]  DIIS error drift  Gradient drift
        1            4.1825E-02         4.5108E-03       4.0015E-01
        2            1.1243E+02         1.0000E-09       4.0015E-01
 ======================================================================
 ITERATION STEP   3
 CPU time [min]:     0.609                   Wall time [min]:     0.019
 

 SCF control                  : diis
 Damping factor/level shift   : 0.000/0.000
 DIIS [start/end/frequency]   :   2 /200 /  1

 Constructing Fock-matrix...
 
 Pipek-Mezey localization...
 Step  Convergence
   1   0.082495312917
   2   0.087252928287
   3   0.000905519029
   4   0.000056052529
   5   0.000013769535
   6   0.000004298797
   7   0.000001401468
   8   0.000000461835
   9   0.000000152734
  10   0.000000050558
  11   0.000000016742
  12   0.000000005545
 CPU time [min]:     0.633                   Wall time [min]:     0.020
 
 Constructing local fitting domains...
 Local fitting domains are unchanged.
 
 First step of Coulomb + first step of exchange...
 Exchange contribution is evaluated for MOs 1 to 10.
   1% done.
  13% done.
  25% done.
  41% done.
  52% done.
  64% done.
  81% done.
  92% done.
 100% done.
 Fitting and assembly step of exchange...
 CPU time [min]:     0.816                   Wall time [min]:     0.022
 
 Second step of Coulomb...
   1% done.
  13% done.
  25% done.
  41% done.
  52% done.
  64% done.
  81% done.
  92% done.
 100% done.
 CPU time [min]:     0.857                   Wall time [min]:     0.023
 
 Gradient norm:      9.9545E-03
 DIIS is running in this iteration step.
 RMS of [F,P]:                                         0.00011419679008
 RMS of difference density:                            0.00027263253737
 Gap [au]:  0.45660379
 ALPHA OCC:  10
 BETA  OCC:  10
 
 ***HARTREE-FOCK ENERGY IN STEP   3 IS       -112.4366365031001749 [AU]
 
 Step comparison  Energy Drift [au]  DIIS error drift  Gradient drift
        2            1.7466E-03         2.5480E-04       1.9896E-02
 ======================================================================
 ITERATION STEP   4
 CPU time [min]:     0.883                   Wall time [min]:     0.024
 

 SCF control                  : diis
 Damping factor/level shift   : 0.000/0.000
 DIIS [start/end/frequency]   :   2 /200 /  1

 Constructing Fock-matrix...
 
 Pipek-Mezey localization...
 Step  Convergence
   1   0.080632481966
   2   0.080160901997
   3   0.001801163720
   4   0.000112661618
   5   0.000031804720
   6   0.000010529579
   7   0.000003537983
   8   0.000001191259
   9   0.000000401394
  10   0.000000135270
  11   0.000000045590
  12   0.000000015365
  13   0.000000005179
 CPU time [min]:     0.907                   Wall time [min]:     0.024
 
 Constructing local fitting domains...
 Local fitting domains are unchanged.
 
 First step of Coulomb + first step of exchange...
 Exchange contribution is evaluated for MOs 1 to 10.
   1% done.
  13% done.
  25% done.
  41% done.
  52% done.
  64% done.
  81% done.
  92% done.
 100% done.
 Fitting and assembly step of exchange...
 CPU time [min]:     1.090                   Wall time [min]:     0.027
 
 Second step of Coulomb...
   1% done.
  13% done.
  25% done.
  41% done.
  52% done.
  64% done.
  81% done.
  92% done.
 100% done.
 CPU time [min]:     1.130                   Wall time [min]:     0.027
 
 Gradient norm:      3.5873E-03
 DIIS is running in this iteration step.
 RMS of [F,P]:                                         0.00004224981402
 RMS of difference density:                            0.00006395800953
 Gap [au]:  0.45456404
 ALPHA OCC:  10
 BETA  OCC:  10
 
 ***HARTREE-FOCK ENERGY IN STEP   4 IS       -112.4368969522164150 [AU]
 
 Step comparison  Energy Drift [au]  DIIS error drift  Gradient drift
        3            2.6045E-04         7.1947E-05       6.3671E-03
 ======================================================================
 ITERATION STEP   5
 CPU time [min]:     1.157                   Wall time [min]:     0.028
 

 SCF control                  : diis
 Damping factor/level shift   : 0.000/0.000
 DIIS [start/end/frequency]   :   2 /200 /  1

 Constructing Fock-matrix...
 
 Pipek-Mezey localization...
 Step  Convergence
   1   0.102974549577
   2   0.099394760334
   3   0.001216953456
   4   0.000077605473
   5   0.000007653606
   6   0.000000831093
   7   0.000000099664
   8   0.000000014618
   9   0.000000002918
 CPU time [min]:     1.180                   Wall time [min]:     0.028
 
 Constructing local fitting domains...
 Local fitting domains are unchanged.
 
 First step of Coulomb + first step of exchange...
 Exchange contribution is evaluated for MOs 1 to 10.
   1% done.
  13% done.
  25% done.
  41% done.
  52% done.
  64% done.
  81% done.
  92% done.
 100% done.
 Fitting and assembly step of exchange...
 CPU time [min]:     1.361                   Wall time [min]:     0.031
 
 Second step of Coulomb...
   1% done.
  13% done.
  25% done.
  41% done.
  52% done.
  64% done.
  81% done.
  92% done.
 100% done.
 CPU time [min]:     1.401                   Wall time [min]:     0.032
 
 Gradient norm:      8.9605E-04
 DIIS is running in this iteration step.
 RMS of [F,P]:                                         0.00001891067756
 RMS of difference density:                            0.00003851528507
 Gap [au]:  0.45464080
 ALPHA OCC:  10
 BETA  OCC:  10
 
 ***HARTREE-FOCK ENERGY IN STEP   5 IS       -112.4369240022956689 [AU]
 
 Step comparison  Energy Drift [au]  DIIS error drift  Gradient drift
        4            2.7050E-05         2.3339E-05       2.6913E-03
 ======================================================================
 ITERATION STEP   6
 CPU time [min]:     1.426                   Wall time [min]:     0.032
 

 SCF control                  : diis
 Damping factor/level shift   : 0.000/0.000
 DIIS [start/end/frequency]   :   2 /200 /  1

 Constructing Fock-matrix...
 
 Pipek-Mezey localization...
 Step  Convergence
   1   0.103259629744
   2   0.104646876832
   3   0.001629477186
   4   0.000126993885
   5   0.000015331765
   6   0.000002534523
   7   0.000000583632
   8   0.000000169030
   9   0.000000054335
  10   0.000000018140
  11   0.000000006132
  12   0.000000002081
  13   0.000000000707
  14   0.000000000240
  15   0.000000000082
  16   0.000000000028
  17   0.000000000009
  18   0.000000000003
  19   0.000000000001
  20   0.000000000000
 CPU time [min]:     1.451                   Wall time [min]:     0.033
 
 Constructing local fitting domains...
 Local fitting domains are unchanged.
 
 First step of Coulomb + first step of exchange...
 Exchange contribution is evaluated for MOs 1 to 10.
   1% done.
  13% done.
  25% done.
  41% done.
  52% done.
  64% done.
  81% done.
  92% done.
 100% done.
 Fitting and assembly step of exchange...
 CPU time [min]:     1.633                   Wall time [min]:     0.036
 
 Second step of Coulomb...
   1% done.
  13% done.
  25% done.
  41% done.
  52% done.
  64% done.
  81% done.
[...]
   37    6H1d+1        6H1d+2        6H2d-2        6H2d-1        6H2d0         6H2d+1        6H2d+2        6H3d-2        6H3d-1        6H3d0     
   38    6H3d+1        6H3d+2        6H1f-3        6H1f-2        6H1f-1        6H1f0         6H1f+1        6H1f+2        6H1f+3        6H2f-3    
   39    6H2f-2        6H2f-1        6H2f0         6H2f+1        6H2f+2        6H2f+3        7H1s          7H2s          7H3s          7H4s      
   40    7H5s          7H1pz         7H1py         7H1px         7H2pz         7H2py         7H2px         7H3pz         7H3py         7H3px     
   41    7H4pz         7H4py         7H4px         7H1d-2        7H1d-1        7H1d0         7H1d+1        7H1d+2        7H2d-2        7H2d-1    
   42    7H2d0         7H2d+1        7H2d+2        7H3d-2        7H3d-1        7H3d0         7H3d+1        7H3d+2        7H1f-3        7H1f-2    
   43    7H1f-1        7H1f0         7H1f+1        7H1f+2        7H1f+3        7H2f-3        7H2f-2        7H2f-1        7H2f0         7H2f+1    
   44    7H2f+2        7H2f+3        8H1s          8H2s          8H3s          8H4s          8H5s          8H1pz         8H1py         8H1px     
   45    8H2pz         8H2py         8H2px         8H3pz         8H3py         8H3px         8H4pz         8H4py         8H4px         8H1d-2    
   46    8H1d-1        8H1d0         8H1d+1        8H1d+2        8H2d-2        8H2d-1        8H2d0         8H2d+1        8H2d+2        8H3d-2    
   47    8H3d-1        8H3d0         8H3d+1        8H3d+2        8H1f-3        8H1f-2        8H1f-1        8H1f0         8H1f+1        8H1f+2    
   48    8H1f+3        8H2f-3        8H2f-2        8H2f-1        8H2f0         8H2f+1        8H2f+2        8H2f+3    
 
 Maximum number of basis functions per shell:   30
 Total number of basis functions:    488
 
 
 Old basis set for SCF restart
 
   1  N  def2-svp [ 7s 4p 1d | 3s 2p 1d ]
   2  H  def2-svp [ 4s 1p | 2s 1p ]
   3  H  def2-svp [ 4s 1p | 2s 1p ]
   4  H  def2-svp [ 4s 1p | 2s 1p ]
   5  N  def2-svp [ 7s 4p 1d | 3s 2p 1d ]
   6  H  def2-svp [ 4s 1p | 2s 1p ]
   7  H  def2-svp [ 4s 1p | 2s 1p ]
   8  H  def2-svp [ 4s 1p | 2s 1p ]
 
 Basis functions:
            1             2             3             4             5             6             7             8             9            10
    0    1N1s          1N2s          1N3s          1N1pz         1N1py         1N1px         1N2pz         1N2py         1N2px         1N1d-2    
    1    1N1d-1        1N1d0         1N1d+1        1N1d+2        2H1s          2H2s          2H1pz         2H1py         2H1px         3H1s      
    2    3H2s          3H1pz         3H1py         3H1px         4H1s          4H2s          4H1pz         4H1py         4H1px         5N1s      
    3    5N2s          5N3s          5N1pz         5N1py         5N1px         5N2pz         5N2py         5N2px         5N1d-2        5N1d-1    
    4    5N1d0         5N1d+1        5N1d+2        6H1s          6H2s          6H1pz         6H1py         6H1px         7H1s          7H2s      
    5    7H1pz         7H1py         7H1px         8H1s          8H2s          8H1pz         8H1py         8H1px     
 
 Maximum number of basis functions per shell:   30
 Total number of basis functions:     58
 
 
 Calculation of two-center Coulomb integrals...
   2% done.
  14% done.
  25% done.
  39% done.
  51% done.
  66% done.
  77% done.
  88% done.
 100% done.
 CPU time [min]:     0.007                   Wall time [min]:     0.005
 

 ************************ 2026-02-26 16:13:29 *************************
 Executing drpa...

 Three-index integral transformation
 Allocation of 46.0 Gbytes of memory...
 
 
 Constructing PAOs...
 PAO norm tolerance:     1.0000E-06
 Kept PAOs:    230   220  104.5455
 CPU time [min]:     0.005                   Wall time [min]:     0.004
 
 Executing the Boughton-Pulay algorithm...
  with occ/virt MO completeness:    0.9990000000    0.9800000000
 
   MO  Natoms  Completeness   Atoms
    1    2     0.999628        5    8
    2    2     0.999441        1    3
    3    2     0.999718        5    6
    4    2     0.999650        1    3
    5    2     0.999770        1    4
    6    2     0.999764        5    7
    7    2     0.999768        1    2
    8    2     0.999671        5    8
 
    9    5     0.998813        1    2    3    4    8
   10    4     0.999838        1    2    3    4
   11    1     0.994950        1
   12    2     0.980074        1    3
   13    1     0.987801        1
   14    3     0.997723        1    2    4
   15    3     0.997601        1    2    3
   16    3     0.994893        1    2    3
   17    3     0.998718        1    2    4
   18    3     0.998672        1    2    3
   19    2     0.994912        1    3
   20    2     0.994910        1    4
   21    2     0.992564        1    2
   22    1     0.985625        1
   23    1     0.994239        1
   24    1     0.994365        1
   25    2     0.998009        1    5
   26    1     0.999920        1
   27    1     0.999935        1
   28    1     0.999880        1
   29    1     0.999990        1
   30    1     0.999951        1
   31    1     0.999508        1
   32    1     0.999586        1
   33    1     0.999236        1
   34    1     0.999942        1
   35    1     0.999694        1
   36    1     0.999074        1
   37    1     0.999707        1
   38    1     0.998365        1
   39    1     0.999378        1
   40    1     0.996521        1
   41    1     0.999964        1
   42    1     0.999984        1
   43    1     0.999988        1
   44    1     0.999954        1
   45    1     0.999992        1
   46    1     0.999967        1
   47    1     0.999989        1
   48    1     0.999898        1
   49    1     0.999960        1
   50    1     0.999970        1
   51    1     0.999885        1
   52    1     0.999949        1
   53    1     0.999905        1
   54    1     0.999917        1
   55    2     0.999232        1    2
   56    2     0.999732        1    2
   57    2     0.997375        1    2
   58    2     0.988310        2    5
   59    1     0.992391        2
   60    1     0.995636        2
   61    1     0.989224        2
   62    2     0.983736        2    4
   63    2     0.999029        1    2
   64    2     0.998993        1    2
   65    2     0.996164        1    2
   66    2     0.996419        1    2
   67    2     0.990356        1    2
   68    1     0.984206        2
   69    1     0.991196        2
   70    1     0.987875        2
   71    1     0.995873        2
   72    1     0.993372        2
   73    3     0.999903        1    2    3
   74    2     0.986018        2    4
   75    3     0.999262        1    2    4
   76    2     0.988049        2    3
   77    2     0.987658        2    3
   78    2     0.995573        1    3
   79    2     0.999495        1    3
   80    2     0.984863        1    3
   81    2     0.984872        3    8
   82    1     0.991791        3
   83    1     0.992268        3
   84    1     0.993000        3
   85    3     0.999687        1    3    4
   86    2     0.998278        1    3
   87    2     0.998506        1    3
   88    2     0.993272        1    3
   89    2     0.992438        1    3
   90    3     0.990982        1    3    8
   91    1     0.994185        3
   92    1     0.992008        3
   93    1     0.995846        3
   94    1     0.990801        3
   95    2     0.999730        1    3
   96    2     0.984017        2    3
   97    2     0.983663        3    4
   98    2     0.996705        1    3
   99    2     0.996979        1    3
  100    2     0.987551        1    3
  101    2     0.999421        1    4
  102    2     0.999725        1    4
  103    2     0.998319        1    4
  104    2     0.983872        1    4
  105    1     0.996807        4
  106    1     0.991836        4
  107    1     0.988758        4
  108    2     0.999045        1    4
  109    3     0.999469        1    2    4
  110    2     0.998835        1    4
  111    2     0.996125        1    4
  112    2     0.997210        1    4
  113    2     0.994593        1    4
  114    1     0.998912        4
  115    1     0.982176        4
  116    1     0.991708        4
  117    2     0.999733        1    4
  118    1     0.999703        4
  119    1     0.990162        4
  120    3     0.998467        1    2    4
  121    3     0.981777        2    3    4
  122    2     0.997793        1    4
  123    1     0.998768        4
  124    5     0.998327        3    5    6    7    8
  125    4     0.999866        5    6    7    8
  126    1     0.994856        5
  127    3     0.991211        5    7    8
  128    1     0.984799        5
  129    4     0.999429        5    6    7    8
  130    3     0.998605        5    7    8
  131    3     0.994377        5    6    8
  132    3     0.997647        5    6    8
  133    3     0.999128        5    7    8
  134    3     0.995833        5    6    8
  135    1     0.990396        5
  136    2     0.991923        5    7
  137    2     0.988298        5    6
  138    1     0.996665        5
  139    1     0.994014        5
  140    2     0.996548        1    5
  141    1     0.999914        5
  142    1     0.999949        5
  143    1     0.999991        5
  144    1     0.999896        5
  145    1     0.999920        5
  146    1     0.999444        5
  147    1     0.999703        5
  148    1     0.999929        5
  149    1     0.999376        5
  150    1     0.999391        5
  151    1     0.998964        5
  152    1     0.999790        5
  153    1     0.998042        5
  154    1     0.999250        5
  155    1     0.993595        5
  156    1     0.999986        5
  157    1     0.999961        5
  158    1     0.999982        5
  159    1     0.999979        5
  160    1     0.999997        5
  161    1     0.999957        5
  162    1     0.999974        5
  163    1     0.999948        5
  164    1     0.999901        5
  165    1     0.999957        5
  166    1     0.999950        5
  167    1     0.999927        5
  168    1     0.999882        5
  169    1     0.999839        5
  170    2     0.999271        5    6
  171    2     0.999452        5    6
  172    2     0.998982        5    6
  173    1     0.980668        6
  174    1     0.989996        6
  175    1     0.992188        6
  176    1     0.995088        6
  177    2     0.999729        5    6
  178    3     0.999489        5    6    7
  179    2     0.998423        5    6
  180    2     0.999781        5    6
  181    2     0.996945        5    6
  182    2     0.995568        5    6
  183    1     0.984976        6
  184    1     0.996995        6
  185    1     0.988262        6
  186    1     0.990096        6
  187    1     0.992291        6
  188    2     0.996079        5    6
  189    1     0.982524        6
  190    2     0.998665        5    6
  191    2     0.999912        5    6
  192    2     0.988308        6    8
  193    2     0.998331        5    7
  194    2     0.999705        5    7
  195    2     0.994364        5    7
  196    2     0.988056        1    7
  197    1     0.988501        7
  198    1     0.996106        7
  199    1     0.992709        7
  200    2     0.999401        5    7
  201    2     0.998696        5    7
  202    2     0.998074        5    7
  203    2     0.998775        5    7
  204    2     0.994159        5    7
  205    3     0.996774        1    5    7
  206    1     0.986325        7
  207    1     0.983294        7
  208    1     0.995870        7
  209    1     0.997617        7
  210    1     0.989207        7
  211    3     0.980543        6    7    8
  212    2     0.999391        5    7
  213    2     0.998723        5    7
  214    1     0.986272        7
  215    3     0.983388        6    7    8
  216    2     0.994906        5    8
  217    2     0.999398        5    8
  218    2     0.983507        5    8
  219    2     0.984335        3    8
  220    1     0.989217        8
  221    1     0.993703        8
  222    1     0.994132        8
  223    2     0.999583        5    8
  224    2     0.998294        5    8
  225    2     0.996532        5    8
  226    2     0.997678        5    8
  227    2     0.992780        5    8
  228    3     0.995651        1    5    8
  229    1     0.993708        8
  230    1     0.992695        8
  231    1     0.991975        8
  232    1     0.991891        8
  233    1     0.982252        8
  234    2     0.997625        5    8
  235    2     0.999700        5    8
  236    2     0.996214        5    8
  237    2     0.999363        5    8
  238    2     0.985078        5    8
 CPU time [min]:     0.061                   Wall time [min]:     0.005
 
 C1 point group was detected
 
 Constructing orbital domains...
 CPU time [min]:     0.132                   Wall time [min]:     0.006
 
 Dimensions of the primary domains:     Minimum / Average / Maximum
 
 Number of atoms in domain:                   6       6.0         6
 Number of atoms in occ BP domain:            2       2.0         2
 Number of atoms in PAO BP domain:            1       1.6         5
 Number of atomic orbitals:                 184     184.0       184
 Number of PAOs:                             69      69.0        69
 
 Prescreening pairs...
 CPU time [min]:     0.154                   Wall time [min]:     0.006
 
 Occupied LMO domain definition with Boughton-Pulay completeness:    0.9999900000
 
   MO  Natoms  Completeness   Atoms
    1    8     1.000000        1    2    3    4    5    6    7    8
    2    8     1.000000        1    2    3    4    5    6    7    8
    3    6     0.999992        2    3    5    6    7    8
    4    7     1.000000        1    2    3    4    5    7    8
    5    6     0.999999        1    2    3    4    7    8
    6    8     1.000000        1    2    3    4    5    6    7    8
    7    7     1.000000        1    2    3    4    5    7    8
    8    8     1.000000        1    2    3    4    5    6    7    8
 
 Executing the Boughton-Pulay algorithm...
  with occ MO completeness:    0.9850000000
 
   MO  Natoms  Completeness   Atoms
    1    1     0.999306        5
    2    1     0.999100        1
    3    2     0.999718        5    6
    4    2     0.999650        1    3
    5    2     0.999770        1    4
    6    2     0.999764        5    7
    7    2     0.999768        1    2
    8    2     0.999671        5    8
 CPU time [min]:     0.206                   Wall time [min]:     0.007
 
 Dimensions of the occupied LMO domains:  Minimum / Average / Maximum
 
 Number of atoms in domain:                   6       7.2         8
 Number of atomic orbitals:                 161     207.0       230
 
 Total number of pairs:   28
 Number of distant pairs: 0 (0.0%)
 Sum of multipole based pair energies:      0.0000000000
 
 CPU time [min]:     0.217                   Wall time [min]:     0.007
 Number of strong pairs: 28 (100.0%)
 chtol from minp:   1.000000000000000E-006
        2.10 MB memory is used for domain independent quantities
 
 Calculating the contribution of occupied LMOs...
    using local fitting domains
 
 MO:     1
 Number of atoms in domain:       8
    Number of atoms in PCD:       8
 Number of atomic orbitals:     230
 Number of atoms for local DF:    8
 Number of fitting functions:   488 (100.00%)
 Number of occupied orbitals:     8
 Number of virtual  orbitals:   220
 Number of Cholesky vectors:     10
 MP2 energy in ED [au]:          -0.061908021132
 Number of occupied LNOs:         7  (87.50%)
 Number of virtual  LNOs:        96  (43.64%)
 Number of Cholesky vectors:      9
 MP2 energy in LIS [au]:         -0.061890893453
 Correction for frozen LNO [au]: -0.000017127679     (0.028%)
 Number of NAFs:                306  (62.70%)
 CPU time [min]:     2.480                   Wall time [min]:     0.054
 

 Direct DF-CCSD(T) calculation
 
 Convergence criterion:  1.0E-05
 
 Number of occupied/virtual/auxiliary orbitals:     7    96   306
    108.63 MB is the minimal memory requirement for (T)
     49.00 MB is the minimal memory requirement for CCSD
 
 MP2 correlation energy [au]:       -0.284773739951
 
 LMP2 domain correlation energy contribution [au]:       -0.061891413072
 
 CPU time [min]:     2.557                   Wall time [min]:     0.055
 
 
 Starting CCSD iterations...
 
                     Residual norm       Correlation Energy
 Iteration  1        0.154602247049       -0.297451561172
 Iteration  2        0.037406218490       -0.304873701431
 Iteration  3        0.011335855811       -0.305732978678
 Iteration  4        0.002938032619       -0.305686688546
 Iteration  5        0.000874639913       -0.305711525443
 Iteration  6        0.000282167053       -0.305708831118
 Iteration  7        0.000072890290       -0.305706925666
 
 CCSD iteration has converged in  7 steps.
      379.77 MB memory was utilized by CCSD
 
 T1 diagnostic:      9.888E-03            D1 diagnostic:      2.478E-02
 
 T1 contribution [au]:                         0.000000000000
 CCSD correlation energy [au]:                -0.064240807568
 
 CPU time [min]:     3.347                   Wall time [min]:     0.068
 
 Calculation of (T) correction...
 
 Laplace threshold, nquadmin:  1.00E-03   4
 Number of quadrature points:    4
 
      123.33 MB memory is utilized for (T)

 0%       25%       50%       75%       100%
 |---------|---------|---------|---------| 
 
 (T) correction [au]:                   -0.002356753536
 CCSD(T) correlation energy [au]:       -0.066597561104
 
 CPU time [min]:     3.870                   Wall time [min]:     0.077
 
 MO:     2
 Number of atoms in domain:       8
    Number of atoms in PCD:       8
 Number of atomic orbitals:     230
 Number of atoms for local DF:    8
 Number of fitting functions:   488 (100.00%)
 Number of occupied orbitals:     8
 Number of virtual  orbitals:   220
 Number of Cholesky vectors:     10
 MP2 energy in ED [au]:          -0.061928786069
 Number of occupied LNOs:         8 (100.00%)
 Number of virtual  LNOs:       100  (45.45%)
 Number of Cholesky vectors:      8
 MP2 energy in LIS [au]:         -0.061910708559
 Correction for frozen LNO [au]: -0.000018077510     (0.029%)
 Number of NAFs:                329  (67.42%)
 CPU time [min]:     5.991                   Wall time [min]:     0.122
 

 Direct DF-CCSD(T) calculation
 
 Convergence criterion:  1.0E-05
 
 Number of occupied/virtual/auxiliary orbitals:     8   100   329
    126.44 MB is the minimal memory requirement for (T)
     58.48 MB is the minimal memory requirement for CCSD
 
 MP2 correlation energy [au]:       -0.366065983543
 
 LMP2 domain correlation energy contribution [au]:       -0.061911223539
 
 CPU time [min]:     6.070                   Wall time [min]:     0.123
 
 
 Starting CCSD iterations...
 
                     Residual norm       Correlation Energy
 Iteration  1        0.165527578115       -0.379539838918
 Iteration  2        0.042285429884       -0.388186579234
 Iteration  3        0.013202610415       -0.389543521546
 Iteration  4        0.003076271367       -0.389580519409
 Iteration  5        0.000983071423       -0.389608249941
 Iteration  6        0.000307807004       -0.389607873979
 Iteration  7        0.000104903271       -0.389606267706
 Iteration  8        0.000041287937       -0.389606086454
 
 CCSD iteration has converged in  8 steps.
      446.98 MB memory was utilized by CCSD
 
 T1 diagnostic:      9.047E-03            D1 diagnostic:      2.146E-02
 
 T1 contribution [au]:                         0.000000000000
 CCSD correlation energy [au]:                -0.064274755639
 
 CPU time [min]:     7.107                   Wall time [min]:     0.140
 
 Calculation of (T) correction...
 
 Laplace threshold, nquadmin:  1.00E-03   4
 Number of quadrature points:    4
 
      150.79 MB memory is utilized for (T)

 0%       25%       50%       75%       100%
 |---------|---------|---------|-------