 **********************************************************************
                          MRCC program system
 **********************************************************************
 
                              Written by
     Mihaly Kallay, Peter R. Nagy, David Mester, Laszlo Gyevi-Nagy,
        Jozsef Csoka, P. Bernat Szabo, Zoltan Rolik, Gyula Samu,
     Jozsef Csontos, Bence Hegely, Adam Ganyecz, Istvan Ladjanszki,
       Lorant Szegedy, Bence Ladoczki, Klara Petrov, Mate Farkas,
                    Pal D. Mezei, and Reka A. Horvath
 
        Department of Physical Chemistry and Materials Science
            Budapest University of Technology and Economics
                  Budapest P.O.Box 91, H-1521 Hungary
 
                              www.mrcc.hu
 
                     Release date: August 28, 2023

 ************************ 2026-02-26 16:01:46 *************************
 Executing minp...

 Reading input from MINP...
 
 Input file:
 
charge=0
mult=1
calc=DF-MP2
basis=aug-cc-pVQZ
symm=off
verbosity=3
unit=angs
scfalg=locfit1
scfmaxit=200
scftol=8
basis_sm=def2-SVP
scfiguess=small
mem=46GB
geom=xyz
4

H      0.80328119605    0.26945480888   -0.52331519112
H      0.26953119605   -0.52331519112    0.80322480888
H     -0.52324880395    0.80323480888    0.26946480888
N     -0.03954880395   -0.03953519112   -0.03953519112
 
 
 Checking keyword combinations...
 
 Keywords:
 
 active=none
 agrid=ld0006-ld0590
 agrid_pssp=ld0006-ld0194
 agrid_pssp_sm=ld0006-ld0074
 basis=aug-cc-pvqz
 basis_sm=def2-svp
 basopt=off
 bfbasis=none
 bfgsmem=10
 bfgstol=1.0d-3
 boysalg=jacobi
 bpcompo=0.985
 bpcompv=0.98
 bpdfo=0.985
 bpocc=0.985
 bppdo=0.985
 bppdv=0.98
 bpedo=0.985
 bpedv=0.98
 calc=mp2
 ccmaxit=50
 ccprog=mrcc
 ccsdalg=disk
 ccsdmkl=seq
 ccsdrest=off
 ccsdthreads=2
 cctol=6
 charge=0
 cialg=disk
 ciguess=off
 cmpgrp=auto
 comprest=off
 coord_sys=ric
 core=frozen
 corembed=off
 csapprox=off
 cvs=off
 dboc=off
 delocsomofact=
 dendec=cholesky
 dens=0
 denscorr=0
 dfalg=lineq
 dfbasis_cab=none
 dfbasis_cor=auto
 dfbasis_scf=auto
 dfbasis_scf_sm=auto
 dfintran=drpa
 dft=off
 dhexc=adc(2)
 diag=david
 docc=
 domrad=10.d0
 drpaalg=fit
 dual=off
 dual_df=off
 ecp=auto
 edisp=off
 edisp_embed=off
 embed=off
 epairestfact=off
 epairscale=1.d0
 etemp=300
 epert=none
 eps=
 espcharge=off
 excrad=1.0
 excrad_fin=0.100000000D-02
 fitting=coulomb
 fmm=off
 fmmord=8
 fnonorb=
 freq=off
 gamma=1.4d0
 gauss=spher
 geom=xyz
 gopt=off
 ghost=none
 gtol=7
 grdens=off
 grid=auto
 grid_sm=auto
 gridbatch_cos=2000
 grtol=10
 guido_ct=off
 hamilton=dc
 iface=none
 intalg=auto
 ip_ea=off
 itol=12
 laptol=1.d-2
 lccoporder=trffirst
 lcorthr=normal
 lccrest=off
 ldfgrad_tol=8
 lmp2dens=on
 lnoepso=0.d0
 lnoepsv=1e-6
 localcc=off
 localcorrsymm=off
 locintrf=disk
 mact=
 maxact=off
 maxdim=200
 maxex=0
 maxmicroit=100
 mcscfiguess=hf
 mem=46gb
 mmprog=
 molden=on
 mpitasks=1
 mulmet=0
 mult=1
 nab=off
 nacto=0
 nactv=0
 naf_amp=3.16d-3
 naf_cor=off
 naf_f12=off
 naf_scf=off
 nafalg=albe
 nafdens=off
 naftyp=
 nchol=auto
 ndeps=1e-3
 nstate=1
 nsing=0
 nto=off
 ntrip=0
 num_grad=off
 occ=
 occri=off
 oniom=off
 oniom_eechg=off
 oniom_pcm=off
 oniom_qcorr=off
 optalg=
 optmaxit=50
 optetol=1e-6
 optex=0
 optgtol=1e-4
 optstol=1e-3
 orblocc=off
 orbloce=off
 orbloco=off
 orblocv=off
 orblocguess=cholesky
 osveps=1e-3
 ovirt=off
 ovltol=1e-7
 ovosnorb=80.0
 pao_subsys_tol=1e-3
 pcm=off
 popul=off
 pressure=100000
 pssp=off
 ptfreq=0.0
 ptthreads=2
 qmreg=
 qmmm=off
 qro=off
 qscf=off
 redcost_exc=off
 redcost_tddft=off
 refdet=none
 rest=0
 rgrid=log3
 rism=off
 rohfcore=semicanonical
 rohftype=semicanonical
 scfalg=locfit1
 scf_conv=auto
 scfdamp=0.0d0
 scfdamp_mode=off
 scfdamp_end=200
 scfdamp_dampstep=0.d0
 scfdamp_dtol=0.0d0
 scfdamp_maxfact=0.0d0
 scfdamp_minfact=0.0d0
 scfdiis=on
 scfdiis_dtol=0.0d0
 scfdiis_end=200
 scfdiis_start=2
 scfdiis_step=1
 scfdiis_watch=off
 scfdiis_wrange=10
 scfdiis_wlimit=5
 scfdiis_delmax=2
 scfdtol=9
 scfext=10
 scfguessdens=
 scfiguess=small
 scfloc=pm
 scflshift=0.20
 scflshift_end=8
 scflshift_dtol=0.0
 scflshift_gaptol=0.20
 scfmaxit=200
 scftype=
 scftol=8
 scspe=1.d0
 scsph=1.d0
 scsps=1.2d0
 scsps_t=1.2d0
 scspt=0.33333333333333
 scspt_t=0.33333333333333
 scspv=1.d0
 spairtol=1e-4
 sqmprog=
 subminp=top
 symm=0
 talg=occ
 temp=298.15
 test=off
 theodore=off
 tlmo=0.999
 tpao=0.94
 tprint=off
 uncontract=off
 unit=angs
 usedisk=2
 verbosity=3
 wpairtol=0.100000000E-05
 
 Calculating integrals for small-basis SCF...

 ************************ 2026-02-26 16:01:46 *************************
 Executing integ...

 Allocation of 46.0 Gbytes of memory...
 
 
 Number of atoms:                  4
 Charge:                           0
 Number of electrons:             10
 Number of core electrons:         2
 Spin multiplicity:                1
 
                 Cartesian coordinates [bohr]      Atomic mass [AMU]  Z
   1  H     1.51798146    0.50919579   -0.98892239     1.007825       1
   2  H     0.50934014   -0.98892239    1.51787491     1.007825       1
   3  H    -0.98879693    1.51789380    0.50921469     1.007825       1
   4  N    -0.07473641   -0.07471068   -0.07471068    14.003074       7
 
 This molecule is an asymmetric top.
 
 Rotational constants [cm-1]: 
      9.818547075435      9.818369386061      6.257416881345
 
 Point group: C1  
 Computational point group: C1  
 
 Cartesian coordinates in standard orientation [bohr]
   1  H     0.36472399    1.74620825    0.59936224
   2  H     1.32998857   -1.18875552    0.59942989
   3  H    -1.69442622   -0.55720763    0.59953850
   4  N    -0.00002061   -0.00001764   -0.12942891
 
 Nuclear repulsion energy [au]:         11.868945825089
 
Warning: for H atoms in the case of dfbasis_scf=auto the AO basis is set as dfbasis_scf instead of def2-qzvp(pd)-ri-jk because the AO basis is larger. Set the dfbasis_scf=def2-qzvp(pd)-ri-jk in MINP if that is desired.
 
 
 Basis set information:
 
 Maximum angular momentum: g
 Maximum number of contracted Gaussians:   10
 Maximum number of primitive Gaussians:    14
 Spherical harmonic GTOs are used.
 
 
 Conventional basis set:
 
   1  H  def2-svp [ 4s 1p | 2s 1p ]
   2  H  def2-svp [ 4s 1p | 2s 1p ]
   3  H  def2-svp [ 4s 1p | 2s 1p ]
   4  N  def2-svp [ 7s 4p 1d | 3s 2p 1d ]
 
 Basis functions:
            1             2             3             4             5             6             7             8             9            10
    0    1H1s          1H2s          1H1pz         1H1py         1H1px         2H1s          2H2s          2H1pz         2H1py         2H1px     
    1    3H1s          3H2s          3H1pz         3H1py         3H1px         4N1s          4N2s          4N3s          4N1pz         4N1py     
    2    4N1px         4N2pz         4N2py         4N2px         4N1d-2        4N1d-1        4N1d0         4N1d+1        4N1d+2    
 
 Maximum number of basis functions per shell:    6
 Total number of basis functions:     29
 
 
 Fitting basis set for the SCF calculation:
 
   1  H  def2-qzvpp [ 7s 3p 2d 1f | 4s 3p 2d 1f ]
   2  H  def2-qzvpp [ 7s 3p 2d 1f | 4s 3p 2d 1f ]
   3  H  def2-qzvpp [ 7s 3p 2d 1f | 4s 3p 2d 1f ]
   4  N  def2-qzvpp-ri-jk [ 14s 10p 6d 2f 1g | 10s 8p 4d 2f 1g ]
 
 Basis functions:
            1             2             3             4             5             6             7             8             9            10
    0    1H1s          1H2s          1H3s          1H4s          1H1pz         1H1py         1H1px         1H2pz         1H2py         1H2px     
    1    1H3pz         1H3py         1H3px         1H1d-2        1H1d-1        1H1d0         1H1d+1        1H1d+2        1H2d-2        1H2d-1    
    2    1H2d0         1H2d+1        1H2d+2        1H1f-3        1H1f-2        1H1f-1        1H1f0         1H1f+1        1H1f+2        1H1f+3    
    3    2H1s          2H2s          2H3s          2H4s          2H1pz         2H1py         2H1px         2H2pz         2H2py         2H2px     
    4    2H3pz         2H3py         2H3px         2H1d-2        2H1d-1        2H1d0         2H1d+1        2H1d+2        2H2d-2        2H2d-1    
    5    2H2d0         2H2d+1        2H2d+2        2H1f-3        2H1f-2        2H1f-1        2H1f0         2H1f+1        2H1f+2        2H1f+3    
    6    3H1s          3H2s          3H3s          3H4s          3H1pz         3H1py         3H1px         3H2pz         3H2py         3H2px     
    7    3H3pz         3H3py         3H3px         3H1d-2        3H1d-1        3H1d0         3H1d+1        3H1d+2        3H2d-2        3H2d-1    
    8    3H2d0         3H2d+1        3H2d+2        3H1f-3        3H1f-2        3H1f-1        3H1f0         3H1f+1        3H1f+2        3H1f+3    
    9    4N1s          4N2s          4N3s          4N4s          4N5s          4N6s          4N7s          4N8s          4N9s          4N10s     
   10    4N1pz         4N1py         4N1px         4N2pz         4N2py         4N2px         4N3pz         4N3py         4N3px         4N4pz     
   11    4N4py         4N4px         4N5pz         4N5py         4N5px         4N6pz         4N6py         4N6px         4N7pz         4N7py     
   12    4N7px         4N8pz         4N8py         4N8px         4N1d-2        4N1d-1        4N1d0         4N1d+1        4N1d+2        4N2d-2    
   13    4N2d-1        4N2d0         4N2d+1        4N2d+2        4N3d-2        4N3d-1        4N3d0         4N3d+1        4N3d+2        4N4d-2    
   14    4N4d-1        4N4d0         4N4d+1        4N4d+2        4N1f-3        4N1f-2        4N1f-1        4N1f0         4N1f+1        4N1f+2    
   15    4N1f+3        4N2f-3        4N2f-2        4N2f-1        4N2f0         4N2f+1        4N2f+2        4N2f+3        4N1g-4        4N1g-3    
   16    4N1g-2        4N1g-1        4N1g0         4N1g+1        4N1g+2        4N1g+3        4N1g+4    
 
 Maximum number of basis functions per shell:   24
 Total number of basis functions:    167
 
 
 Initializing the SAD routines for the initial guess...
 Checking the files required for the initial guess...
 Density files have not been found for the initial guess.
 Generating SCFDENSITIES.H.def2-svp.0
 Generating SCFDENSITIES.N.def2-svp.0
 CPU time [min]:     0.213                   Wall time [min]:     0.133
 
 Character table for point group C1:
 
          E  
    A     1
 
 Number of basis functions per irrep:
    A      29
 
 
 Calculation of overlap integrals...
 CPU time [min]:     0.218                   Wall time [min]:     0.133
 
 Calculation of the square root of the overlap matrix...
 Minimum eigenvalue of the overlap matrix: 0.292877E-01
 CPU time [min]:     0.230                   Wall time [min]:     0.133
 
 Calculation of kinetic energy integrals...
 CPU time [min]:     0.231                   Wall time [min]:     0.133
 Calculation of dipole moment integrals...
 CPU time [min]:     0.232                   Wall time [min]:     0.133
 Calculation of nuclear attraction integrals...
 CPU time [min]:     0.233                   Wall time [min]:     0.133
 
 Calculation of prescreening integrals...
 CPU time [min]:     0.239                   Wall time [min]:     0.133
 
 Calculation of two-center Coulomb integrals...
   1% done.
  13% done.
  25% done.
  36% done.
  55% done.
  74% done.
  90% done.
 100% done.
 CPU time [min]:     0.249                   Wall time [min]:     0.133
 
 Cholesky decomposition of the two-center matrix...
 Reciprocal of the condition number:  0.155759E-04
 CPU time [min]:     0.258                   Wall time [min]:     0.134
 
 
 Running small-basis SCF...

 ************************ 2026-02-26 16:01:54 *************************
 Executing scf...

 @scfsetup: integrals calculated directly
            mrcc/integ direct run
 @scfsetup: calculating on full matrices
            not using symmetry adapted basis
 @scfsetup: diis switched on
 @scfsetup: number of steps to extrapolate from  10
 @scfsetup: tolerance in energy deviation    0.100000E-07
            tolerance in density deviation    0.100000E-08
 @scfsetup: maximum number of iterations: 200
 @scfsetup: restricted closed shell hf calc
 @scfsetup: starting scf from superposition of atomic densities
 @scfsetup: occupation set:
            from initial orbitals
 @scfsetup: Parameter-set for SCF acceleration: normal
 @scfsetup: diis runs from iteration:   2
 @scfsetup: diis runs to iteration: 200
 @scfsetup: diis runs in every iteration
 @scfsetup: diiswatch is disabled                   
 @scfsetup: diis dtol criteria to switch on:      0.0000E+00
           (or the iteration number below is reached)
 @scfsetup: static damping scheme
            iteration step criteria to turn damping off: 3
 @scfsetup: dynamic level shifting
            tolarance in HOMO-LUMO gap:  0.200
            tolarance in density deviation:     0.0000E+00
            iteration step criteria to turn level shifting off: 8
 Allocation of 46.0 Gbytes of memory...
 ======================================================================
 ITERATION STEP   1
 CPU time [min]:     0.013                   Wall time [min]:     0.008
 

 SCF control                  : initial
 Damping factor/level shift   : 0.000/0.200
 DIIS [start/end/frequency]   :   2 /200 /  1

 Constructing Fock-matrix...
 
 Pipek-Mezey localization...
 Step  Convergence
   1   0.888796809851
   2   0.020853371154
   3   0.000187883211
   4   0.000000161387
   5   0.000000001411
 CPU time [min]:     0.040                   Wall time [min]:     0.008
 
 Constructing local fitting domains...
 Maximum number of atoms in fitting domains:    4
 Average number of atoms in fitting domains:    4.0
 
 First step of Coulomb + first step of exchange...
 Exchange contribution is evaluated for MOs 1 to 5.
   1% done.
  13% done.
  28% done.
  39% done.
  69% done.
 100% done.
 Fitting and assembly step of exchange...
 CPU time [min]:     0.097                   Wall time [min]:     0.009
 
 Second step of Coulomb...
   1% done.
  13% done.
  28% done.
  39% done.
  69% done.
 100% done.
 CPU time [min]:     0.107                   Wall time [min]:     0.009
 
 Gradient norm:      2.3643E+00
 RMS of [F,P]:                                         0.07486204860595
 RMS of difference density:                            0.02760052999359
 Gap [au]:  0.68428253
 ALPHA OCC:   5
 BETA  OCC:   5
 
 ***HARTREE-FOCK ENERGY IN STEP   1 IS        -55.8537107290801771 [AU]
 ======================================================================
 ITERATION STEP   2
 CPU time [min]:     0.118                   Wall time [min]:     0.010
 

 SCF control                  : diis
 Damping factor/level shift   : 0.000/0.000
 DIIS [start/end/frequency]   :   2 /200 /  1

 Constructing Fock-matrix...
 
 Pipek-Mezey localization...
 Step  Convergence
   1   0.020353813688
   2   0.020299181511
   3   0.000002060193
   4   0.000000000304
 CPU time [min]:     0.144                   Wall time [min]:     0.010
 
 Constructing local fitting domains...
 Maximum number of atoms in fitting domains:    4
 Average number of atoms in fitting domains:    4.0
 
 First step of Coulomb + first step of exchange...
 Exchange contribution is evaluated for MOs 1 to 5.
   1% done.
  13% done.
  28% done.
  39% done.
  69% done.
 100% done.
 Fitting and assembly step of exchange...
 CPU time [min]:     0.196                   Wall time [min]:     0.011
 
 Second step of Coulomb...
   1% done.
  13% done.
  28% done.
  39% done.
  69% done.
 100% done.
 CPU time [min]:     0.207                   Wall time [min]:     0.011
 
 Gradient norm:      3.2038E-01
 DIIS is running in this iteration step.
 RMS of [F,P]:                                         0.01604635564835
 RMS of difference density:                            0.01267319554487
 Gap [au]:  0.55359330
 ALPHA OCC:   5
 BETA  OCC:   5
 
 ***HARTREE-FOCK ENERGY IN STEP   2 IS        -56.1233877293020313 [AU]
 
 Step comparison  Energy Drift [au]  DIIS error drift  Gradient drift
        1            2.6968E-01         5.8816E-02       2.0439E+00
        2            5.6123E+01         1.0000E-09       2.0439E+00
 ======================================================================
 ITERATION STEP   3
 CPU time [min]:     0.222                   Wall time [min]:     0.011
 

 SCF control                  : diis
 Damping factor/level shift   : 0.000/0.000
 DIIS [start/end/frequency]   :   2 /200 /  1

 Constructing Fock-matrix...
 
 Pipek-Mezey localization...
 Step  Convergence
   1   0.020181846999
   2   0.020281278928
   3   0.000001826106
   4   0.000000000907
 CPU time [min]:     0.248                   Wall time [min]:     0.012
 
 Constructing local fitting domains...
 Local fitting domains are unchanged.
 
 First step of Coulomb + first step of exchange...
 Exchange contribution is evaluated for MOs 1 to 5.
   1% done.
  13% done.
  28% done.
  39% done.
  69% done.
 100% done.
 Fitting and assembly step of exchange...
 CPU time [min]:     0.299                   Wall time [min]:     0.012
 
 Second step of Coulomb...
   1% done.
  13% done.
  28% done.
  39% done.
  69% done.
 100% done.
 CPU time [min]:     0.309                   Wall time [min]:     0.013
 
 Gradient norm:      1.2627E-01
 DIIS is running in this iteration step.
 RMS of [F,P]:                                         0.00756552218362
 RMS of difference density:                            0.00383725135799
 Gap [au]:  0.60435329
 ALPHA OCC:   5
 BETA  OCC:   5
 
 ***HARTREE-FOCK ENERGY IN STEP   3 IS        -56.1429859020536455 [AU]
 
 Step comparison  Energy Drift [au]  DIIS error drift  Gradient drift
        2            1.9598E-02         8.4808E-03       1.9412E-01
 ======================================================================
 ITERATION STEP   4
 CPU time [min]:     0.329                   Wall time [min]:     0.013
 

 SCF control                  : diis
 Damping factor/level shift   : 0.000/0.000
 DIIS [start/end/frequency]   :   2 /200 /  1

 Constructing Fock-matrix...
 
 Pipek-Mezey localization...
 Step  Convergence
   1   0.019965324472
   2   0.020286309812
   3   0.000001763274
   4   0.000000002031
 CPU time [min]:     0.355                   Wall time [min]:     0.013
 
 Constructing local fitting domains...
 Local fitting domains are unchanged.
 
 First step of Coulomb + first step of exchange...
 Exchange contribution is evaluated for MOs 1 to 5.
   1% done.
  13% done.
  28% done.
  39% done.
  69% done.
 100% done.
 Fitting and assembly step of exchange...
 CPU time [min]:     0.406                   Wall time [min]:     0.014
 
 Second step of Coulomb...
   1% done.
  13% done.
  28% done.
  39% done.
  69% done.
 100% done.
 CPU time [min]:     0.416                   Wall time [min]:     0.014
 
 Gradient norm:      2.4281E-02
 DIIS is running in this iteration step.
 RMS of [F,P]:                                         0.00094435254727
 RMS of difference density:                            0.00095263040959
 Gap [au]:  0.59672649
 ALPHA OCC:   5
 BETA  OCC:   5
 
 ***HARTREE-FOCK ENERGY IN STEP   4 IS        -56.1482078585046978 [AU]
 
 Step comparison  Energy Drift [au]  DIIS error drift  Gradient drift
        3            5.2220E-03         6.6212E-03       1.0198E-01
 ======================================================================
 ITERATION STEP   5
 CPU time [min]:     0.429                   Wall time [min]:     0.015
 

 SCF control                  : diis
 Damping factor/level shift   : 0.000/0.000
 DIIS [start/end/frequency]   :   2 /200 /  1

 Constructing Fock-matrix...
 
 Pipek-Mezey localization...
 Step  Convergence
   1   0.030140740704
   2   0.030310908281
   3   0.000052149096
   4   0.000000432119
   5   0.000000001255
 CPU time [min]:     0.456                   Wall time [min]:     0.015
 
 Constructing local fitting domains...
 Local fitting domains are unchanged.
 
 First step of Coulomb + first step of exchange...
 Exchange contribution is evaluated for MOs 1 to 5.
   1% done.
  13% done.
  28% done.
  39% done.
  69% done.
 100% done.
 Fitting and assembly step of exchange...
 CPU time [min]:     0.506                   Wall time [min]:     0.016
 
 Second step of Coulomb...
   1% done.
  13% done.
  28% done.
  39% done.
  69% done.
 100% done.
 CPU time [min]:     0.516                   Wall time [min]:     0.016
 
 Gradient norm:      2.0338E-03
 DIIS is running in this iteration step.
 RMS of [F,P]:                                         0.00015710551549
 RMS of difference density:                            0.00013093270838
 Gap [au]:  0.59699277
 ALPHA OCC:   5
 BETA  OCC:   5
 
 ***HARTREE-FOCK ENERGY IN STEP   5 IS        -56.1483695851859821 [AU]
 
 Step comparison  Energy Drift [au]  DIIS error drift  Gradient drift
        4            1.6173E-04         7.8725E-04       2.2247E-02
 ======================================================================
 ITERATION STEP   6
 CPU time [min]:     0.530                   Wall time [min]:     0.016
 

 SCF control                  : diis
 Damping factor/level shift   : 0.000/0.000
 DIIS [start/end/frequency]   :   2 /200 /  1

 Constructing Fock-matrix...
 
 Pipek-Mezey localization...
 Step  Convergence
   1   0.035076453119
   2   0.035985334064
   3   0.000053370180
   4   0.000000138533
   5   0.000000000336
 CPU time [min]:     0.556                   Wall time [min]:     0.017
 
 Constructing local fitting domains...
 Local fitting domains are unchanged.
 
 First step of Coulomb + first step of exchange...
 Exchange contribution is evaluated for MOs 1 to 5.
   1% done.
  13% done.
  28% done.
  39% done.
  69% done.
 100% done.
 Fitting and assembly step of exchange...
 CPU time [min]:     0.607                   Wall time [min]:     0.017
 
 Second step of Coulomb...
   1% done.
  13% done.
  28% done.
  39% done.
  69% done.
 100% done.
 CPU time [min]:     0.617                   Wall time [min]:     0.017
 
 Gradient norm:      3.1558E-04
 DIIS is running in this iteration step.
 RMS of [F,P]:                                         0.00001580972021
 RMS of difference density:                            0.00001245646002
 Gap [au]:  0.59698555
 ALPHA OCC:   5
 BETA  OCC:   5
 
 ***HARTREE-FOCK ENERGY IN STEP   6 IS        -56.1483729278159132 [AU]
 
 Step comparison  Energy Drift [au]  DIIS error drift  Gradient drift
        5            3.3426E-06         1.4130E-04       1.7182E-03
 ======================================================================
 ITERATION STEP   7
 CPU time [min]:     0.631                   Wall time [min]:     0.018
 

 SCF control                  : diis
 Damping factor/level shift   : 0.000/0.000
 DIIS [start/end/frequency]   :   2 /200 /  1

 Constructing Fock-matrix...
 
 Pipek-Mezey localization...
 Step  Convergence
   1   0.045541697476
   2   0.044350295539
   3   0.000037360700
   4   0.000000212263
   5   0.000000001603
   6   0.000000000006
   7   0.000000000000
 CPU time [min]:     0.657                   Wall time [min]:     0.018
 
 Constructing local fitting domains...
 Local fitting domains are unchanged.
 
 First step of Coulomb + first step of exchange...
 Exchange contribution is evaluated for MOs 1 to 5.
   1% done.
  13% done.
  28% done.
  39% done.
  69% done.
 100% done.
 Fitting and assembly step of exchange...
 CPU time [min]:     0.707                   Wall time [min]:     0.019
 
 Second step of Coulomb...
   1% done.
  13% done.
  28% done.
  39% done.
  69% done.
 100% done.
 CPU time [min]:     0.717                   Wall time [min]:     0.019
 
 Gradient norm:      7.2861E-05
 DIIS is running in this iteration step.
 RMS of [F,P]:                                         0.00000232055058
 RMS of difference density:                            0.00000235834755
 Gap [au]:  0.59697679
 ALPHA OCC:   5
 BETA  OCC:   5
 
 ***HARTREE-FOCK ENERGY IN STEP   7 IS        -56.1483729611167135 [AU]
 
 Step comparison  Energy Drift [au]  DIIS error drift  Gradient drift
        6            3.3301E-08         1.3489E-05       2.4272E-04
 ======================================================================
 ITERATION STEP   8
 CPU time [min]:     0.731                   Wall time [min]:     0.019
 

 SCF control                  : diis
 Damping factor/level shift   : 0.000/0.000
 DIIS [start/end/frequency]   :   2 /200 /  1

 Constructing Fock-matrix...
 
 Pipek-Mezey localization...
 Step  Convergence
   1   0.045542339724
   2   0.046408504593
   3   0.000076499831
   4   0.000000337774
   5   0.000000000782
   6   0.000000000005
   7   0.000000000000
 CPU time [min]:     0.758                   Wall time [min]:     0.020
 
 Constructing local fitting domains...
 Local fitting domains are unchanged.
 
 First step of Coulomb + first step of exchange...
 Exchange contribution is evaluated for MOs 1 to 5.
   1% done.
  13% done.
  28% done.
  39% done.
  69% done.
 100% done.
 Fitting and assembly step of exchange...
 CPU time [min]:     0.808                   Wall time [min]:     0.021
 
 Second step of Coulomb...
   1% done.
  13% done.
  28% done.
  39% done.
  69% done.
 100% done.
 CPU time [min]:     0.818                   Wall time [min]:     0.021
 
 Gradient norm:      1.0680E-05
 DIIS is running in this iteration step.
 RMS of [F,P]:                                         0.00000040752193
 RMS of difference density:                            0.00000052795964
 Gap [au]:  0.59697336
 ALPHA OCC:   5
 BETA  OCC:   5
 
 ***HARTREE-FOCK ENERGY IN STEP   8 IS        -56.1483729622628189 [AU]
 
 Step comparison  Energy Drift [au]  DIIS error drift  Gradient drift
        7            1.1461E-09         1.9130E-06       6.2181E-05
 ======================================================================
 ITERATION STEP   9
 CPU time [min]:     0.857                   Wall time [min]:     0.021
 

 SCF control                  : diis
 Damping factor/level shift   : 0.000/0.000
 DIIS [start/end/frequency]   :   2 /200 /  1

 Constructing Fock-matrix...
 
 Pipek-Mezey localization...
 Step  Convergence
   1   0.045541264293
   2   0.044286981778
   3   0.000033535527
   4   0.000000126408
   5   0.000000001204
   6   0.000000000009
   7   0.000000000000
 CPU time [min]:     0.883                   Wall time [min]:     0.022
 
 Constructing local fitting domains...
 Local fitting domains are unchanged.
 
 First step of Coulomb + first step of exchange...
 Exchange contribution is evaluated for MOs 1 to 5.
   1% done.
  13% done.
  28% done.
  39% done.
  69% done.
 100% done.
 Fitting and assembly step of exchange...
 CPU time [min]:     0.934                   Wall time [min]:     0.022
 
 Second step of Coulomb...
   1% done.
  13% done.
  28% done.
  39% done.
  69% done.
 100% done.
 CPU time [min]:     0.944                   Wall time [min]:     0.023
 
 Gradient norm:      1.2194E-06
 DIIS is running in this iteration step.
 RMS of [F,P]:                                         0.00000004993312
 RMS of difference density:                            0.00000011294067
 Gap [au]:  0.59697315
 ALPHA OCC:   5
 BETA  OCC:   5
 
 ***HARTREE-FOCK ENERGY IN STEP   9 IS        -56.1483729623051318 [AU]
 
 Step comparison  Energy Drift [au]  DIIS error drift  Gradient drift
        8            4.2313E-11         3.5759E-07       9.4607E-06
 ======================================================================
 ITERATION STEP  10
 CPU time [min]:     0.993                   Wall time [min]:     0.023
 

 SCF control                  : diis
 Damping factor/level shift   : 0.000/0.000
 DIIS [start/end/frequency]   :   2 /200 /  1

 Constructing Fock-matrix...
 
 Pipek-Mezey localization...
 Step  Convergence
   1   0.045140216295
   2   0.044127926257
   3   0.000002919209
   4   0.000000007454
   5   0.000000000059
   6   0.000000000000
 CPU time [min]:     1.020                   Wall time [min]:     0.024
 
 Constructing local fitting domains...
 Local fitting domains are unchanged.
 
 First step of Coulomb + first step of exchange...
 Exchange contribution is evaluated for MOs 1 to 5.
   1% done.
  13% done.
  28% done.
  39% done.
  69% done.
 100% done.
 Fitting and assembly step of exchange...
 CPU time [min]:     1.070                   Wall time [min]:     0.025
 
 Second step of Coulomb...
   1% done.
  13% done.
  28% done.
  39% done.
  69% done.
 100% done.
 CPU time [min]:     1.080                   Wall time [min]:     0.025
 
 Gradient norm:      4.1087E-07
 DIIS is running in this iteration step.
 RMS of [F,P]:                                         0.00000001237371
 RMS of difference density:                            0.00000004068237
 Gap [au]:  0.59697313
 ALPHA OCC:   5
 BETA  OCC:   5
 
 ***HARTREE-FOCK ENERGY IN STEP  10 IS        -56.1483729623060910 [AU]
 
 Step comparison  Energy Drift [au]  DIIS error drift  Gradient drift
        9            9.5923E-13         3.7559E-08       8.0852E-07
 ======================================================================
 ITERATION STEP  11
 CPU time [min]:     1.094                   Wall time [min]:     0.025
 

 SCF control                  : diis
 Damping factor/level shift   : 0.000/0.000
 DIIS [start/end/frequency]   :   2 /200 /  1

 Constructing Fock-matrix...
 
 Pipek-Mezey localization...
 Step  Convergence
   1   0.040084418596
   2   0.039929659256
   3   0.000030804751
   4   0.000000109837
   5   0.000000000269
   6   0.000000000001
 CPU time [min]:     1.121                   Wall time [min]:     0.025
 
 Constructing local fitting domains...
 Local fitting domains are unchanged.
 
 First step of Coulomb + first step of exchange...
 Exchange contribution is evaluated for MOs 1 to 5.
   1% done.
  13% done.
  28% done.
  39% done.
  69% done.
 100% done.
 Fitting and assembly step of exchange...
 CPU time [min]:     1.171                   Wall time [min]:     0.026
 
 Second step of Coulomb...
   1% done.
  13% done.
  28% done.
  39% done.
  69% done.
 100% done.
 CPU time [min]:     1.181                   Wall time [min]:     0.026
 
 Gradient norm:      5.2332E-08
 DIIS is running in this iteration step.
 RMS of [F,P]:                                         0.00000000216509
 RMS of difference density:                            0.00000000639834
 Gap [au]:  0.59697314
 ALPHA OCC:   5
 BETA  OCC:   5
 
 ***HARTREE-FOCK ENERGY IN STEP  11 IS        -56.1483729623061691 [AU]
 
 Step comparison  Energy Drift [au]  DIIS error drift  Gradient drift
       10            7.8160E-14         1.0209E-08       3.5854E-07
 ======================================================================
 ITERATION STEP  12
 CPU time [min]:     1.195                   Wall time [min]:     0.027
 

 SCF control                  : diis
 Damping factor/level shift   : 0.000/0.000
 DIIS [start/end/frequency]   :   2 /200 /  1

 Constructing Fock-matrix...
 
 Pipek-Mezey localization...
 Step  Convergence
   1   0.055469153950
   2   0.053171864709
   3   0.000067617428
   4   0.000000127684
   5   0.000000000284
   6   0.000000000001
 CPU time [min]:     1.221                   Wall time [min]:     0.027
 
 Constructing local fitting domains...
 Local fitting domains are unchanged.
 
 First step of Coulomb + first step of exchange...
 Exchange contribution is evaluated for MOs 1 to 5.
   1% done.
  13% done.
  28% done.
  39% done.
  69% done.
 100% done.
 Fitting and assembly step of exchange...
 CPU time [min]:     1.272                   Wall time [min]:     0.028
 
 Second step of Coulomb...
   1% done.
  13% done.
  28% done.
  39% done.
  69% done.
 100% done.
 CPU time [min]:     1.282                   Wall time [min]:     0.028
 
 Gradient norm:      3.7025E-09
 DIIS is running in this iteration step.
 RMS of [F,P]:                                         0.00000000016407
 RMS of difference density:                            0.00000000017485
 Gap [au]:  0.59697314
 ALPHA OCC:   5
 BETA  OCC:   5
 
 ***HARTREE-FOCK ENERGY IN STEP  12 IS        -56.1483729623062544 [AU]
 
 Step comparison  Energy Drift [au]  DIIS error drift  Gradient drift
       11            8.5265E-14         2.0010E-09       4.8630E-08
 
 The SCF iteration has converged.
 An extra iteration will be performed to calculate accurate SCF energy.
 
 ======================================================================
 ITERATION STEP  13
 CPU time [min]:     1.297                   Wall time [min]:     0.028
 

 SCF control                  : diis
 Damping factor/level shift   : 0.000/0.000
 DIIS [start/end/frequency]   :   2 /200 /  1

 Constructing Fock-matrix...
 
 Pipek-Mezey localization...
 Step  Convergence
   1   0.045140190967
   2   0.044127884586
   3   0.000002941347
   4   0.000000000313
   5   0.000000000000
 CPU time [min]:     1.324                   Wall time [min]:     0.029
 
 Constructing local fitting domains...
 Local fitting domains are unchanged.
 
 First step of Coulomb + first step of exchange...
 Exchange contribution is evaluated for MOs 1 to 5.
   1% done.
  13% done.
  28% done.
  39% done.
  69% done.
 100% done.
 Fitting and assembly step of exchange...
 CPU time [min]:     1.374                   Wall time [min]:     0.029
 
 Second step of Coulomb...
   1% done.
  13% done.
  28% done.
  39% done.
  69% done.
 100% done.
 CPU time [min]:     1.384                   Wall time [min]:     0.030
 
 Gradient norm:      4.7509E-10
 RMS of [F,P]:                                         0.00000000002599
 RMS of difference density:                            0.00000000003052
 Gap [au]:  0.59697314
 ALPHA OCC:   5
 BETA  OCC:   5
 
 ***HARTREE-FOCK ENERGY IN STEP  13 IS        -56.1483729623062615 [AU]
 
 Step comparison  Energy Drift [au]  DIIS error drift  Gradient drift
       12            7.1054E-15         1.3808E-10       3.2274E-09
 ======================================================================
 
 SUCCESS...
 THE SCF ITERATION HAS CONVERGED!
 
                   A   
 FINAL ALPHA OCC:   5
 FINAL BETA  OCC:   5
 
 ***FINAL HARTREE-FOCK ENERGY:        -56.1483729623062615 [AU]
 
 Orbital energies [au]:
      Irrep         Alpha          Beta
    1   A        -15.537640     -15.537640
    2   A         -1.116004      -1.116004
    3   A         -0.617254      -0.617254
    4   A         -0.617214      -0.617214
    5   A         -0.420656      -0.420656
 
    6   A          0.176317       0.176317
    7   A          0.269668       0.269668
    8   A          0.269672       0.269672
    9   A          0.734864       0.734864
   10   A          0.734918       0.734918
   11   A          0.892375       0.892375
   12   A          0.989030       0.989030
   13   A          1.095109       1.095109
   14   A          1.095114       1.095114
   15   A          1.146208       1.146208
   16   A          1.455232       1.455232
   17   A          1.455271       1.455271
   18   A          1.877731       1.877731
   19   A          1.961818       1.961818
   20   A          2.082327       2.082327
   21   A          2.082336       2.082336
   22   A          2.428591       2.428591
   23   A          2.428714       2.428714
   24   A          2.772227       2.772227
   25   A          3.164917       3.164917
   26   A          3.164921       3.164921
   27   A          3.261477       3.261477
   28   A          3.704700       3.704700
   29   A          3.704711       3.704711
 
 RETURNING FROM SCF ALGORITHM
 ======================================================================

 ************************ 2026-02-26 16:01:56 *************************
 Executing integ...

 Allocation of 46.0 Gbytes of memory...
 
 
 Number of atoms:                  4
 Charge:                           0
 Number of electrons:             10
 Number of core electrons:         2
 Spin multiplicity:                1
 
                 Cartesian coordinates [bohr]      Atomic mass [AMU]  Z
   1  H     1.51798146    0.50919579   -0.98892239     1.007825       1
   2  H     0.50934014   -0.98892239    1.51787491     1.007825       1
   3  H    -0.98879693    1.51789380    0.50921469     1.007825       1
   4  N    -0.07473641   -0.07471068   -0.07471068    14.003074       7
 
 This molecule is an asymmetric top.
 
 Rotational constants [cm-1]: 
      9.818547075435      9.818369386061      6.257416881345
 
 Point group: C1  
 Computational point group: C1  
 
 Cartesian coordinates in standard orientation [bohr]
   1  H     0.36472399    1.74620825    0.59936224
   2  H     1.32998857   -1.18875552    0.59942989
   3  H    -1.69442622   -0.55720763    0.59953850
   4  N    -0.00002061   -0.00001764   -0.12942891
 
 Nuclear repulsion energy [au]:         11.868945825089
 
 
 Basis set information:
 
 Maximum angular momentum: h
 Maximum number of contracted Gaussians:   11
 Maximum number of primitive Gaussians:    14
 Spherical harmonic GTOs are used.
 
 
 Conventional basis set:
 
   1  H  aug-cc-pvqz [ 7s 4p 3d 2f | 5s 4p 3d 2f ]
   2  H  aug-cc-pvqz [ 7s 4p 3d 2f | 5s 4p 3d 2f ]
   3  H  aug-cc-pvqz [ 7s 4p 3d 2f | 5s 4p 3d 2f ]
   4  N  aug-cc-pvqz [ 13s 7p 4d 3f 2g | 6s 5p 4d 3f 2g ]
 
 Basis functions:
            1             2             3             4             5             6             7             8             9            10
    0    1H1s          1H2s          1H3s          1H4s          1H5s          1H1pz         1H1py         1H1px         1H2pz         1H2py     
    1    1H2px         1H3pz         1H3py         1H3px         1H4pz         1H4py         1H4px         1H1d-2        1H1d-1        1H1d0     
    2    1H1d+1        1H1d+2        1H2d-2        1H2d-1        1H2d0         1H2d+1        1H2d+2        1H3d-2        1H3d-1        1H3d0     
    3    1H3d+1        1H3d+2        1H1f-3        1H1f-2        1H1f-1        1H1f0         1H1f+1        1H1f+2        1H1f+3        1H2f-3    
    4    1H2f-2        1H2f-1        1H2f0         1H2f+1        1H2f+2        1H2f+3        2H1s          2H2s          2H3s          2H4s      
    5    2H5s          2H1pz         2H1py         2H1px         2H2pz         2H2py         2H2px         2H3pz         2H3py         2H3px     
    6    2H4pz         2H4py         2H4px         2H1d-2        2H1d-1        2H1d0         2H1d+1        2H1d+2        2H2d-2        2H2d-1    
    7    2H2d0         2H2d+1        2H2d+2        2H3d-2        2H3d-1        2H3d0         2H3d+1        2H3d+2        2H1f-3        2H1f-2    
    8    2H1f-1        2H1f0         2H1f+1        2H1f+2        2H1f+3        2H2f-3        2H2f-2        2H2f-1        2H2f0         2H2f+1    
    9    2H2f+2        2H2f+3        3H1s          3H2s          3H3s          3H4s          3H5s          3H1pz         3H1py         3H1px     
   10    3H2pz         3H2py         3H2px         3H3pz         3H3py         3H3px         3H4pz         3H4py         3H4px         3H1d-2    
   11    3H1d-1        3H1d0         3H1d+1        3H1d+2        3H2d-2        3H2d-1        3H2d0         3H2d+1        3H2d+2        3H3d-2    
   12    3H3d-1        3H3d0         3H3d+1        3H3d+2        3H1f-3        3H1f-2        3H1f-1        3H1f0         3H1f+1        3H1f+2    
   13    3H1f+3        3H2f-3        3H2f-2        3H2f-1        3H2f0         3H2f+1        3H2f+2        3H2f+3        4N1s          4N2s      
   14    4N3s          4N4s          4N5s          4N6s          4N1pz         4N1py         4N1px         4N2pz         4N2py         4N2px     
   15    4N3pz         4N3py         4N3px         4N4pz         4N4py         4N4px         4N5pz         4N5py         4N5px         4N1d-2    
   16    4N1d-1        4N1d0         4N1d+1        4N1d+2        4N2d-2        4N2d-1        4N2d0         4N2d+1        4N2d+2        4N3d-2    
   17    4N3d-1        4N3d0         4N3d+1        4N3d+2        4N4d-2        4N4d-1        4N4d0         4N4d+1        4N4d+2        4N1f-3    
   18    4N1f-2        4N1f-1        4N1f0         4N1f+1        4N1f+2        4N1f+3        4N2f-3        4N2f-2        4N2f-1        4N2f0     
   19    4N2f+1        4N2f+2        4N2f+3        4N3f-3        4N3f-2        4N3f-1        4N3f0         4N3f+1        4N3f+2        4N3f+3    
   20    4N1g-4        4N1g-3        4N1g-2        4N1g-1        4N1g0         4N1g+1        4N1g+2        4N1g+3        4N1g+4        4N2g-4    
   21    4N2g-3        4N2g-2        4N2g-1        4N2g0         4N2g+1        4N2g+2        4N2g+3        4N2g+4    
 
 Maximum number of basis functions per shell:   21
 Total number of basis functions:    218
 
 
 Fitting basis set for the SCF calculation:
 
   1  H  aug-cc-pvqz-ri-jk [ 5s 4p 4d 3f 2g | 5s 4p 4d 3f 2g ]
   2  H  aug-cc-pvqz-ri-jk [ 5s 4p 4d 3f 2g | 5s 4p 4d 3f 2g ]
   3  H  aug-cc-pvqz-ri-jk [ 5s 4p 4d 3f 2g | 5s 4p 4d 3f 2g ]
   4  N  aug-cc-pvqz-ri-jk [ 11s 8p 6d 4f 3g 2h | 11s 8p 6d 4f 3g 2h ]
 
 Basis functions:
            1             2             3             4             5             6             7             8             9            10
    0    1H1s          1H2s          1H3s          1H4s          1H5s          1H1pz         1H1py         1H1px         1H2pz         1H2py     
    1    1H2px         1H3pz         1H3py         1H3px         1H4pz         1H4py         1H4px         1H1d-2        1H1d-1        1H1d0     
    2    1H1d+1        1H1d+2        1H2d-2        1H2d-1        1H2d0         1H2d+1        1H2d+2        1H3d-2        1H3d-1        1H3d0     
    3    1H3d+1        1H3d+2        1H4d-2        1H4d-1        1H4d0         1H4d+1        1H4d+2        1H1f-3        1H1f-2        1H1f-1    
    4    1H1f0         1H1f+1        1H1f+2        1H1f+3        1H2f-3        1H2f-2        1H2f-1        1H2f0         1H2f+1        1H2f+2    
    5    1H2f+3        1H3f-3        1H3f-2        1H3f-1        1H3f0         1H3f+1        1H3f+2        1H3f+3        1H1g-4        1H1g-3    
    6    1H1g-2        1H1g-1        1H1g0         1H1g+1        1H1g+2        1H1g+3        1H1g+4        1H2g-4        1H2g-3        1H2g-2    
    7    1H2g-1        1H2g0         1H2g+1        1H2g+2        1H2g+3        1H2g+4        2H1s          2H2s          2H3s          2H4s      
    8    2H5s          2H1pz         2H1py         2H1px         2H2pz         2H2py         2H2px         2H3pz         2H3py         2H3px     
    9    2H4pz         2H4py         2H4px         2H1d-2        2H1d-1        2H1d0         2H1d+1        2H1d+2        2H2d-2        2H2d-1    
   10    2H2d0         2H2d+1        2H2d+2        2H3d-2        2H3d-1        2H3d0         2H3d+1        2H3d+2        2H4d-2        2H4d-1    
   11    2H4d0         2H4d+1        2H4d+2        2H1f-3        2H1f-2        2H1f-1        2H1f0         2H1f+1        2H1f+2        2H1f+3    
   12    2H2f-3        2H2f-2        2H2f-1        2H2f0         2H2f+1        2H2f+2        2H2f+3        2H3f-3        2H3f-2        2H3f-1    
   13    2H3f0         2H3f+1        2H3f+2        2H3f+3        2H1g-4        2H1g-3        2H1g-2        2H1g-1        2H1g0         2H1g+1    
   14    2H1g+2        2H1g+3        2H1g+4        2H2g-4        2H2g-3        2H2g-2        2H2g-1        2H2g0         2H2g+1        2H2g+2    
   15    2H2g+3        2H2g+4        3H1s          3H2s          3H3s          3H4s          3H5s          3H1pz         3H1py         3H1px     
   16    3H2pz         3H2py         3H2px         3H3pz         3H3py         3H3px         3H4pz         3H4py         3H4px         3H1d-2    
   17    3H1d-1        3H1d0         3H1d+1        3H1d+2        3H2d-2        3H2d-1        3H2d0         3H2d+1        3H2d+2        3H3d-2    
   18    3H3d-1        3H3d0         3H3d+1        3H3d+2        3H4d-2        3H4d-1        3H4d0         3H4d+1        3H4d+2        3H1f-3    
   19    3H1f-2        3H1f-1        3H1f0         3H1f+1        3H1f+2        3H1f+3        3H2f-3        3H2f-2        3H2f-1        3H2f0     
   20    3H2f+1        3H2f+2        3H2f+3        3H3f-3        3H3f-2        3H3f-1        3H3f0         3H3f+1        3H3f+2        3H3f+3    
   21    3H1g-4        3H1g-3        3H1g-2        3H1g-1        3H1g0         3H1g+1        3H1g+2        3H1g+3        3H1g+4        3H2g-4    
   22    3H2g-3        3H2g-2        3H2g-1        3H2g0         3H2g+1        3H2g+2        3H2g+3        3H2g+4        4N1s          4N2s      
   23    4N3s          4N4s          4N5s          4N6s          4N7s          4N8s          4N9s          4N10s         4N11s         4N1pz     
   24    4N1py         4N1px         4N2pz         4N2py         4N2px         4N3pz         4N3py         4N3px         4N4pz         4N4py     
   25    4N4px         4N5pz         4N5py         4N5px         4N6pz         4N6py         4N6px         4N7pz         4N7py         4N7px     
   26    4N8pz         4N8py         4N8px         4N1d-2        4N1d-1        4N1d0         4N1d+1        4N1d+2        4N2d-2        4N2d-1    
   27    4N2d0         4N2d+1        4N2d+2        4N3d-2        4N3d-1        4N3d0         4N3d+1        4N3d+2        4N4d-2        4N4d-1    
   28    4N4d0         4N4d+1        4N4d+2        4N5d-2        4N5d-1        4N5d0         4N5d+1        4N5d+2        4N6d-2        4N6d-1    
   29    4N6d0         4N6d+1        4N6d+2        4N1f-3        4N1f-2        4N1f-1        4N1f0         4N1f+1        4N1f+2        4N1f+3    
   30    4N2f-3        4N2f-2        4N2f-1        4N2f0         4N2f+1        4N2f+2        4N2f+3        4N3f-3        4N3f-2        4N3f-1    
   31    4N3f0         4N3f+1        4N3f+2        4N3f+3        4N4f-3        4N4f-2        4N4f-1        4N4f0         4N4f+1        4N4f+2    
   32    4N4f+3        4N1g-4        4N1g-3        4N1g-2        4N1g-1        4N1g0         4N1g+1        4N1g+2        4N1g+3        4N1g+4    
   33    4N2g-4        4N2g-3        4N2g-2        4N2g-1        4N2g0         4N2g+1        4N2g+2        4N2g+3        4N2g+4        4N3g-4    
   34    4N3g-3        4N3g-2        4N3g-1        4N3g0         4N3g+1        4N3g+2        4N3g+3        4N3g+4        4N1h-5        4N1h-4    
   35    4N1h-3        4N1h-2        4N1h-1        4N1h0         4N1h+1        4N1h+2        4N1h+3        4N1h+4        4N1h+5        4N2h-5    
   36    4N2h-4        4N2h-3        4N2h-2        4N2h-1        4N2h0         4N2h+1        4N2h+2        4N2h+3        4N2h+4        4N2h+5    
 
 Maximum number of basis functions per shell:   30
 Total number of basis functions:    370
 
 
 Fitting basis set for the correlation calculation:
 
   1  H  aug-cc-pvqz-ri [ 6s 5p 4d 3f 2g | 6s 5p 4d 3f 2g ]
   2  H  aug-cc-pvqz-ri [ 6s 5p 4d 3f 2g | 6s 5p 4d 3f 2g ]
   3  H  aug-cc-pvqz-ri [ 6s 5p 4d 3f 2g | 6s 5p 4d 3f 2g ]
   4  N  aug-cc-pvqz-ri [ 9s 8p 7d 6f 4g 2h | 9s 8p 7d 6f 4g 2h ]
 
 Basis functions:
            1             2             3             4             5             6             7             8             9            10
    0    1H1s          1H2s          1H3s          1H4s          1H5s          1H6s          1H1pz         1H1py         1H1px         1H2pz     
    1    1H2py         1H2px         1H3pz         1H3py         1H3px         1H4pz         1H4py         1H4px         1H5pz         1H5py     
    2    1H5px         1H1d-2        1H1d-1        1H1d0         1H1d+1        1H1d+2        1H2d-2        1H2d-1        1H2d0         1H2d+1    
    3    1H2d+2        1H3d-2        1H3d-1        1H3d0         1H3d+1        1H3d+2        1H4d-2        1H4d-1        1H4d0         1H4d+1    
    4    1H4d+2        1H1f-3        1H1f-2        1H1f-1        1H1f0         1H1f+1        1H1f+2        1H1f+3        1H2f-3        1H2f-2    
    5    1H2f-1        1H2f0         1H2f+1        1H2f+2        1H2f+3        1H3f-3        1H3f-2        1H3f-1        1H3f0         1H3f+1    
    6    1H3f+2        1H3f+3        1H1g-4        1H1g-3        1H1g-2        1H1g-1        1H1g0         1H1g+1        1H1g+2        1H1g+3    
    7    1H1g+4        1H2g-4        1H2g-3        1H2g-2        1H2g-1        1H2g0         1H2g+1        1H2g+2        1H2g+3        1H2g+4    
    8    2H1s          2H2s          2H3s          2H4s          2H5s          2H6s          2H1pz         2H1py         2H1px         2H2pz     
    9    2H2py         2H2px         2H3pz         2H3py         2H3px         2H4pz         2H4py         2H4px         2H5pz         2H5py     
   10    2H5px         2H1d-2        2H1d-1        2H1d0         2H1d+1        2H1d+2        2H2d-2        2H2d-1        2H2d0         2H2d+1    
   11    2H2d+2        2H3d-2        2H3d-1        2H3d0         2H3d+1        2H3d+2        2H4d-2        2H4d-1        2H4d0         2H4d+1    
   12    2H4d+2        2H1f-3        2H1f-2        2H1f-1        2H1f0         2H1f+1        2H1f+2        2H1f+3        2H2f-3        2H2f-2    
   13    2H2f-1        2H2f0         2H2f+1        2H2f+2        2H2f+3        2H3f-3        2H3f-2        2H3f-1        2H3f0         2H3f+1    
   14    2H3f+2        2H3f+3        2H1g-4        2H1g-3        2H1g-2        2H1g-1        2H1g0         2H1g+1        2H1g+2        2H1g+3    
   15    2H1g+4        2H2g-4        2H2g-3        2H2g-2        2H2g-1        2H2g0         2H2g+1        2H2g+2        2H2g+3        2H2g+4    
   16    3H1s          3H2s          3H3s          3H4s          3H5s          3H6s          3H1pz         3H1py         3H1px         3H2pz     
   17    3H2py         3H2px         3H3pz         3H3py         3H3px         3H4pz         3H4py         3H4px         3H5pz         3H5py     
   18    3H5px         3H1d-2        3H1d-1        3H1d0         3H1d+1        3H1d+2        3H2d-2        3H2d-1        3H2d0         3H2d+1    
   19    3H2d+2        3H3d-2        3H3d-1        3H3d0         3H3d+1        3H3d+2        3H4d-2        3H4d-1        3H4d0         3H4d+1    
   20    3H4d+2        3H1f-3        3H1f-2        3H1f-1        3H1f0         3H1f+1        3H1f+2        3H1f+3        3H2f-3        3H2f-2    
   21    3H2f-1        3H2f0         3H2f+1        3H2f+2        3H2f+3        3H3f-3        3H3f-2        3H3f-1        3H3f0         3H3f+1    
   22    3H3f+2        3H3f+3        3H1g-4        3H1g-3        3H1g-2        3H1g-1        3H1g0         3H1g+1        3H1g+2        3H1g+3    
   23    3H1g+4        3H2g-4        3H2g-3        3H2g-2        3H2g-1        3H2g0         3H2g+1        3H2g+2        3H2g+3        3H2g+4    
   24    4N1s          4N2s          4N3s          4N4s          4N5s          4N6s          4N7s          4N8s          4N9s          4N1pz     
   25    4N1py         4N1px         4N2pz         4N2py         4N2px         4N3pz         4N3py         4N3px         4N4pz         4N4py     
   26    4N4px         4N5pz         4N5py         4N5px         4N6pz         4N6py         4N6px         4N7pz         4N7py         4N7px     
   27    4N8pz         4N8py         4N8px         4N1d-2        4N1d-1        4N1d0         4N1d+1        4N1d+2        4N2d-2        4N2d-1    
   28    4N2d0         4N2d+1        4N2d+2        4N3d-2        4N3d-1        4N3d0         4N3d+1        4N3d+2        4N4d-2        4N4d-1    
   29    4N4d0         4N4d+1        4N4d+2        4N5d-2        4N5d-1        4N5d0         4N5d+1        4N5d+2        4N6d-2        4N6d-1    
   30    4N6d0         4N6d+1        4N6d+2        4N7d-2        4N7d-1        4N7d0         4N7d+1        4N7d+2        4N1f-3        4N1f-2    
   31    4N1f-1        4N1f0         4N1f+1        4N1f+2        4N1f+3        4N2f-3        4N2f-2        4N2f-1        4N2f0         4N2f+1    
   32    4N2f+2        4N2f+3        4N3f-3        4N3f-2        4N3f-1        4N3f0         4N3f+1        4N3f+2        4N3f+3        4N4f-3    
   33    4N4f-2        4N4f-1        4N4f0         4N4f+1        4N4f+2        4N4f+3        4N5f-3        4N5f-2        4N5f-1        4N5f0     
   34    4N5f+1        4N5f+2        4N5f+3        4N6f-3        4N6f-2        4N6f-1        4N6f0         4N6f+1        4N6f+2        4N6f+3    
   35    4N1g-4        4N1g-3        4N1g-2        4N1g-1        4N1g0         4N1g+1        4N1g+2        4N1g+3        4N1g+4        4N2g-4    
   36    4N2g-3        4N2g-2        4N2g-1        4N2g0         4N2g+1        4N2g+2        4N2g+3        4N2g+4        4N3g-4        4N3g-3    
   37    4N3g-2        4N3g-1        4N3g0         4N3g+1        4N3g+2        4N3g+3        4N3g+4        4N4g-4        4N4g-3        4N4g-2    
   38    4N4g-1        4N4g0         4N4g+1        4N4g+2        4N4g+3        4N4g+4        4N1h-5        4N1h-4        4N1h-3        4N1h-2    
   39    4N1h-1        4N1h0         4N1h+1        4N1h+2        4N1h+3        4N1h+4        4N1h+5        4N2h-5        4N2h-4        4N2h-3    
   40    4N2h-2        4N2h-1        4N2h0         4N2h+1        4N2h+2        4N2h+3        4N2h+4        4N2h+5    
 
 Maximum number of basis functions per shell:   42
 Total number of basis functions:    408
 
 
 Old basis set for SCF restart
 
   1  H  def2-svp [ 4s 1p | 2s 1p ]
   2  H  def2-svp [ 4s 1p | 2s 1p ]
   3  H  def2-svp [ 4s 1p | 2s 1p ]
   4  N  def2-svp [ 7s 4p 1d | 3s 2p 1d ]
 
 Basis functions:
            1             2             3             4             5             6             7             8             9            10
    0    1H1s          1H2s          1H1pz         1H1py         1H1px         2H1s          2H2s          2H1pz         2H1py         2H1px     
    1    3H1s          3H2s          3H1pz         3H1py         3H1px         4N1s          4N2s          4N3s          4N1pz         4N1py     
    2    4N1px         4N2pz         4N2py         4N2px         4N1d-2        4N1d-1        4N1d0         4N1d+1        4N1d+2    
 
 Maximum number of basis functions per shell:   42
 Total number of basis functions:     29
 
 
 Character table for point group C1:
 
          E  
    A     1
 
 Number of basis functions per irrep:
    A     218
 
 
 Calculation of overlap integrals...
 CPU time [min]:     0.128                   Wall time [min]:     0.004
 
 Calculation of the square root of the overlap matrix...
 Minimum eigenvalue of the overlap matrix: 0.476052E-04
 CPU time [min]:     0.152                   Wall time [min]:     0.005
 
 Calculation of kinetic energy integrals...
 CPU time [min]:     0.153                   Wall time [min]:     0.005
 Calculation of dipole moment integrals...
 CPU time [min]:     0.155                   Wall time [min]:     0.005
 Calculation of nuclear attraction integrals...
 CPU time [min]:     0.157                   Wall time [min]:     0.005
 Calculation of overlap integrals...
 CPU time [min]:     0.159                   Wall time [min]:     0.005
 
 Calculation of prescreening integrals...
 CPU time [min]:     0.395                   Wall time [min]:     0.009
 
 Calculation of two-center Coulomb integrals...
   1% done.
  13% done.
  26% done.
  38% done.
  51% done.
  63% done.
  75% done.
  88% done.
 100% done.
 CPU time [min]:     0.408                   Wall time [min]:     0.009
 
 Cholesky decomposition of the two-center matrix...
 Reciprocal of the condition number:  0.118229E-04
 CPU time [min]:     0.415                   Wall time [min]:     0.009
 

 ************************ 2026-02-26 16:01:57 *************************
 Executing scf...

 @scfsetup: integrals calculated directly
            mrcc/integ direct run
 @scfsetup: calculating on full matrices
            not using symmetry adapted basis
 @scfsetup: diis switched on
 @scfsetup: number of steps to extrapolate from  10
 @scfsetup: tolerance in energy deviation    0.100000E-07
            tolerance in density deviation    0.100000E-08
 @scfsetup: maximum number of iterations: 200
 @scfsetup: restricted closed shell hf calc
 @scfsetup: restarting scf from SCFDENSITIES file
 @scfsetup: occupation set:
            from initial orbitals
 @scfsetup: Parameter-set for SCF acceleration: normal
 @scfsetup: diis runs from iteration:   2
 @scfsetup: diis runs to iteration: 200
 @scfsetup: diis runs in every iteration
 @scfsetup: diiswatch is disabled                   
 @scfsetup: diis dtol criteria to switch on:      0.0000E+00
           (or the iteration number below is reached)
 @scfsetup: static damping scheme
            iteration step criteria to turn damping off: 3
 @scfsetup: dynamic level shifting
            tolarance in HOMO-LUMO gap:  0.200
            tolarance in density deviation:     0.0000E+00
            iteration step criteria to turn level shifting off: 8
 Allocation of 46.0 Gbytes of memory...
 ======================================================================
 ITERATION STEP   1
 CPU time [min]:     0.039                   Wall time [min]:     0.008
 

 SCF control                  : initial
 Damping factor/level shift   : 0.000/0.200
 DIIS [start/end/frequency]   :   2 /200 /  1

 Constructing Fock-matrix...
 Inverse square root: The matrix is not positive definite!
 
 Pipek-Mezey localization...
 Step  Convergence
   1   0.889267702313
   2   0.003505830783
   3   0.000011708851
   4   0.000000377710
   5   0.000000008942
 CPU time [min]:     0.067                   Wall time [min]:     0.009
 
 Constructing local fitting domains...
 Maximum number of atoms in fitting domains:    4
 Average number of atoms in fitting domains:    4.0
 
 First step of Coulomb + first step of exchange...
 Exchange contribution is evaluated for MOs 1 to 5.
   1% done.
  13% done.
  25% done.
  40% done.
  53% done.
  67% done.
  84% done.
 100% done.
 Fitting and assembly step of exchange...
 CPU time [min]:     0.205                   Wall time [min]:     0.011
 
 Second step of Coulomb...
   1% done.
  13% done.
  25% done.
  40% done.
  53% done.
  67% done.
  84% done.
 100% done.
 CPU time [min]:     0.249                   Wall time [min]:     0.012
 
 Gradient norm:      1.0858E+00
 RMS of [F,P]:                                         0.01001227658468
 RMS of difference density:                            0.02080906726866
 Gap [au]:  0.45382000
 ALPHA OCC:   5
 BETA  OCC:   5
 
 ***HARTREE-FOCK ENERGY IN STEP   1 IS        -56.1756371010529278 [AU]
 ======================================================================
 ITERATION STEP   2
 CPU time [min]:     0.277                   Wall time [min]:     0.012
 

 SCF control                  : diis
 Damping factor/level shift   : 0.000/0.000
 DIIS [start/end/frequency]   :   2 /200 /  1

 Constructing Fock-matrix...
 
 Pipek-Mezey localization...
 Step  Convergence
   1   0.019963457806
   2   0.020264961711
   3   0.000017386754
   4   0.000000214701
   5   0.000000001283
 CPU time [min]:     0.300                   Wall time [min]:     0.013
 
 Constructing local fitting domains...
 Maximum number of atoms in fitting domains:    4
 Average number of atoms in fitting domains:    4.0
 
 First step of Coulomb + first step of exchange...
 Exchange contribution is evaluated for MOs 1 to 5.
   1% done.
  13% done.
  25% done.
  40% done.
  53% done.
  67% done.
  84% done.
 100% done.
 Fitting and assembly step of exchange...
 CPU time [min]:     0.422                   Wall time [min]:     0.015
 
 Second step of Coulomb...
   1% done.
  13% done.
  25% done.
  40% done.
  53% done.
  67% done.
  84% done.
 100% done.
 CPU time [min]:     0.465                   Wall time [min]:     0.015
 
 Gradient norm:      5.2940E-02
 DIIS is running in this iteration step.
 RMS of [F,P]:                                         0.00035094089734
 RMS of difference density:                            0.00128919176257
 Gap [au]:  0.45622598
 ALPHA OCC:   5
 BETA  OCC:   5
 
 ***HARTREE-FOCK ENERGY IN STEP   2 IS        -56.2222341881827390 [AU]
 
 Step comparison  Energy Drift [au]  DIIS error drift  Gradient drift
        1            4.6597E-02         9.6613E-03       1.0328E+00
        2            5.6222E+01         1.0000E-09       1.0328E+00
 ======================================================================
 ITERATION STEP   3
 CPU time [min]:     0.490                   Wall time [min]:     0.016
 

 SCF control                  : diis
 Damping factor/level shift   : 0.000/0.000
 DIIS [start/end/frequency]   :   2 /200 /  1

 Constructing Fock-matrix...
 
 Pipek-Mezey localization...
 Step  Convergence
   1   0.030452045366
   2   0.031490310412
   3   0.000171558169
   4   0.000000398313
   5   0.000000010486
   6   0.000000000108
 CPU time [min]:     0.513                   Wall time [min]:     0.016
 
 Constructing local fitting domains...
 Local fitting domains are unchanged.
 
 First step of Coulomb + first step of exchange...
 Exchange contribution is evaluated for MOs 1 to 5.
   1% done.
  13% done.
  25% done.
  40% done.
  53% done.
  67% done.
  84% done.
 100% done.
 Fitting and assembly step of exchange...
 CPU time [min]:     0.632                   Wall time [min]:     0.018
 
 Second step of Coulomb...
   1% done.
  13% done.
  25% done.
  40% done.
  53% done.
  67% done.
  84% done.
 100% done.
 CPU time [min]:     0.675                   Wall time [min]:     0.019
 
 Gradient norm:      9.8037E-03
 DIIS is running in this iteration step.
 RMS of [F,P]:                                         0.00008770026841
 RMS of difference density:                            0.00027069248464
 Gap [au]:  0.45825734
 ALPHA OCC:   5
 BETA  OCC:   5
 
 ***HARTREE-FOCK ENERGY IN STEP   3 IS        -56.2231658315900802 [AU]
 
 Step comparison  Energy Drift [au]  DIIS error drift  Gradient drift
        2            9.3164E-04         2.6324E-04       4.3136E-02
 ======================================================================
 ITERATION STEP   4
 CPU time [min]:     0.698                   Wall time [min]:     0.019
 

 SCF control                  : diis
 Damping factor/level shift   : 0.000/0.000
 DIIS [start/end/frequency]   :   2 /200 /  1

 Constructing Fock-matrix...
 
 Pipek-Mezey localization...
 Step  Convergence
   1   0.019962546188
   2   0.020234343553
   3   0.000017170583
   4   0.000000192437
   5   0.000000001653
 CPU time [min]:     0.721                   Wall time [min]:     0.020
 
 Constructing local fitting domains...
 Local fitting domains are unchanged.
 
 First step of Coulomb + first step of exchange...
 Exchange contribution is evaluated for MOs 1 to 5.
   1% done.
  13% done.
  25% done.
  40% done.
  53% done.
  67% done.
  84% done.
 100% done.
 Fitting and assembly step of exchange...
 CPU time [min]:     0.840                   Wall time [min]:     0.022
 
 Second step of Coulomb...
   1% done.
  13% done.
  25% done.
  40% done.
  53% done.
  67% done.
  84% done.
 100% done.
 CPU time [min]:     0.883                   Wall time [min]:     0.022
 
 Gradient norm:      4.1788E-03
 DIIS is running in this iteration step.
 RMS of [F,P]:                                         0.00003319875904
 RMS of difference density:                            0.00006484501398
 Gap [au]:  0.45620675
 ALPHA OCC:   5
 BETA  OCC:   5
 
 ***HARTREE-FOCK ENERGY IN STEP   4 IS        -56.2232987955275973 [AU]
 
 Step comparison  Energy Drift [au]  DIIS error drift  Gradient drift
        3            1.3296E-04         5.4502E-05       5.6250E-03
 ======================================================================
 ITERATION STEP   5
 CPU time [min]:     0.906                   Wall time [min]:     0.023
 

 SCF control                  : diis
 Damping factor/level shift   : 0.000/0.000
 DIIS [start/end/frequency]   :   2 /200 /  1

 Constructing Fock-matrix...
 
 Pipek-Mezey localization...
 Step  Convergence
   1   0.041254319781
   2   0.036798529079
   3   0.000366204847
   4   0.000005636960
   5   0.000000156242
   6   0.000000005264
 CPU time [min]:     0.929                   Wall time [min]:     0.023
 
 Constructing local fitting domains...
 Local fitting domains are unchanged.
 
 First step of Coulomb + first step of exchange...
 Exchange contribution is evaluated for MOs 1 to 5.
   1% done.
  13% done.
  25% done.
  40% done.
  53% done.
  67% done.
  84% done.
 100% done.
 Fitting and assembly step of exchange...
 CPU time [min]:     1.047                   Wall time [min]:     0.025
 
 Second step of Coulomb...
   1% done.
  13% done.
  25% done.
  40% done.
  53% done.
  67% done.
  84% done.
 100% done.
 CPU time [min]:     1.090                   Wall time [min]:     0.026
 
 Gradient norm:      1.4025E-03
 DIIS is running in this iteration step.
 RMS of [F,P]:                                         0.00001624439034
 RMS of difference density:                            0.00003331206457
 Gap [au]:  0.45642260
 ALPHA OCC:   5
 BETA  OCC:   5
 
 ***HARTREE-FOCK ENERGY IN STEP   5 IS        -56.2233164077080900 [AU]
 
 Step comparison  Energy Drift [au]  DIIS error drift  Gradient drift
        4            1.7612E-05         1.6954E-05       2.7763E-03
 ======================================================================
 ITERATION STEP   6
 CPU time [min]:     1.114                   Wall time [min]:     0.026
 

 SCF control                  : diis
 Damping factor/level shift   : 0.000/0.000
 DIIS [start/end/frequency]   :   2 /200 /  1

 Constructing Fock-matrix...
 
 Pipek-Mezey localization...
 Step  Convergence
   1   0.041481055651
   2   0.038329655487
   3   0.000323835446
   4   0.000007585780
   5   0.000000170822
   6   0.000000006100
   7   0.000000000170
   8   0.000000000005
   9   0.000000000000
 CPU time [min]:     1.137                   Wall time [min]:     0.026
 
 Constructing local fitting domains...
 Local fitting domains are unchanged.
 
 First step of Coulomb + first step of exchange...
 Exchange contribution is evaluated for MOs 1 to 5.
   1% done.
  13% done.
  25% done.
  40% done.
  53% done.
  67% done.
  84% done.
 100% done.
 Fitting and assembly step of exchange...
 CPU time [min]:     1.256                   Wall time [min]:     0.028
 
 Second step of Coulomb...
   1% done.
  13% done.
  25% done.
  40% done.
  53% done.
  67% done.
  84% done.
 100% done.
 CPU time [min]:     1.301                   Wall time [min]:     0.029
 
 Gradient norm:      3.9889E-04
 DIIS is running in this iteration step.
 RMS of [F,P]:                                         0.00000253476274
 RMS of difference density:                            0.00000635177798
 Gap [au]:  0.45625023
 ALPHA OCC:   5
 BETA  OCC:   5
 
 ***HARTREE-FOCK ENERGY IN STEP   6 IS        -56.2233197432989726 [AU]
 
 Step comparison  Energy Drift [au]  DIIS error drift  Gradient drift
        5            3.3356E-06         1.3710E-05       1.0036E-03
 ======================================================================
 ITERATION STEP   7
 CPU time [min]:     1.324                   Wall time [min]:     0.029
 

 SCF control                  : diis
 Damping factor/level shift   : 0.000/0.000
 DIIS [start/end/frequency]   :   2 /200 /  1

 Constructing Fock-matrix...
 
 Pipek-Mezey localization...
 Step  Convergence
   1   0.041719577127
   2   0.038767411308
   3   0.000405496061
   4   0.000007992169
   5   0.000000208758
   6   0.000000007417
   7   0.000000000211
   8   0.000000000007
   9   0.000000000000
 CPU time [min]:     1.347                   Wall time [min]:     0.030
 
 Constructing local fitting domains...
 Local fitting domains are unchanged.
 
 First step of Coulomb + first step of exchange...
 Exchange contribution is evaluated for MOs 1 to 5.
   1% done.
  13% done.
  25% done.
  40% done.
  53% done.
  67% done.
  84% done.
 100% done.
 Fitting and assembly step of exchange...
 CPU time [min]:     1.466                   Wall time [min]:     0.032
 
 Second step of Coulomb...
   1% done.
  13% done.
  25% done.
  40% done.
  53% done.
  67% done.
  84% done.
 100% done.
 CPU time [min]:     1.509                   Wall time [min]:     0.032
 
 Gradient norm:      4.2803E-05
 DIIS is running in this iteration step.
 RMS of [F,P]:                                         0.00000034877944
 RMS of difference density:                            0.00000083772073
 Gap [au]:  0.45624562
 ALPHA OCC:   5
 BETA  OCC:   5
 
 ***HARTREE-FOCK ENERGY IN STEP   7 IS        -56.2233198187167034 [AU]
 
 Step comparison  Energy Drift [au]  DIIS error drift  Gradient drift
        6            7.5418E-08         2.1860E-06       3.5609E-04
 ======================================================================
 ITERATION STEP   8
 CPU time [min]:     1.534                   Wall time [min]:     0.033
 

 SCF control                  : diis
 Damping factor/level shift   : 0.000/0.000
 DIIS [start/end/frequency]   :   2 /200 /  1

 Constructing Fock-matrix...
 
 Pipek-Mezey localization...
 Step  Convergence
   1   0.040452602854
   2   0.038120206372
   3   0.000314536185
   4   0.000005844434
   5   0.000000158351
   6   0.000000005285
   7   0.000000000166
   8   0.000000000006
   9   0.000000000000
 CPU time [min]:     1.557                   Wall time [min]:     0.033
 
 Constructing local fitting domains...
 Local fitting domains are unchanged.
 
 First step of Coulomb + first step of exchange...
 Exchange contribution is evaluated for MOs 1 to 5.
   1% done.
  13% done.
  25% done.
  40% done.
  53% done.
  67% done.
  84% done.
 100% done.
 Fitting and assembly step of exchange...
 CPU time [min]:     1.676                   Wall time [min]:     0.035
 
 Second step of Coulomb...
   1% done.
  13% done.
  25% done.
  40% done.
  53% done.
  67% done.
  84% done.
 100% done.
 CPU time [min]:     1.719                   Wall time [min]:     0.036
 
 Gradient norm:      1.6274E-05
 DIIS is running in this iteration step.
 RMS of [F,P]:                                         0.00000012221055
 RMS of difference density:                            0.00000026861597
 Gap [au]:  0.45624563
 ALPHA OCC:   5
 BETA  OCC:   5
 
 ***HARTREE-FOCK ENERGY IN STEP   8 IS        -56.2233198212665570 [AU]
 
 Step comparison  Energy Drift [au]  DIIS error drift  Gradient drift
        7            2.5499E-09         2.2657E-07       2.6530E-05
 ======================================================================
 ITERATION STEP   9
 CPU time [min]:     1.744                   Wall time [min]:     0.036
 

 SCF control                  : diis
 Damping factor/level shift   : 0.000/0.000
 DIIS [start/end/frequency]   :   2 /200 /  1

 Constructing Fock-matrix...
 
 Pipek-Mezey localization...
 Step  Convergence
   1   0.040507307568
   2   0.038490268242
   3   0.000319602335
   4   0.000007336118
   5   0.000000167308
   6   0.000000005368
   7   0.000000000159
   8   0.000000000006
   9   0.000000000000
 CPU time [min]:     1.766                   Wall time [min]:     0.037
 
 Constructing local fitting domains...
 Local fitting domains are unchanged.
 
 First step of Coulomb + first step of exchange...
 Exchange contribution is evaluated for MOs 1 to 5.
   1% done.
  13% done.
  25% done.
  40% done.
  53% done.
  67% done.
  84% done.
 100% done.
 Fitting and assembly step of exchange...
 CPU time [min]:     1.885                   Wall time [min]:     0.039
 
 Second step of Coulomb...
   1% done.
  13% done.
  25% done.
  40% done.
  53% done.
  67% done.
  84% done.
 100% done.
 CPU time [min]:     1.929                   Wall time [min]:     0.039
 
 Gradient norm:      3.9219E-06
 DIIS is running in this iteration step.
 RMS of [F,P]:                                         0.00000002853616
 RMS of difference density:                            0.00000007679947
 Gap [au]:  0.45624547
 ALPHA OCC:   5
 BETA  OCC:   5
 
 ***HARTREE-FOCK ENERGY IN STEP   9 IS        -56.2233198215861023 [AU]
 
 Step comparison  Energy Drift [au]  DIIS error drift  Gradient drift
        8            3.1955E-10         9.3674E-08       1.2352E-05
 ======================================================================
 ITERATION STEP  10
 CPU time [min]:     1.953                   Wall time [min]:     0.040
 

 SCF control                  : diis
 Damping factor/level shift   : 0.000/0.000
 DIIS [start/end/frequency]   :   2 /200 /  1

 Constructing Fock-matrix...
 
 Pipek-Mezey localization...
 Step  Convergence
   1   0.041463727498
   2   0.039431189260
   3   0.000350559317
   4   0.000007405514
   5   0.000000177561
   6   0.000000005222
   7   0.000000000167
   8   0.000000000006
   9   0.000000000000
 CPU time [min]:     1.976                   Wall time [min]:     0.040
 
 Constructing local fitting domains...
 Local fitting domains are unchanged.
 
 First step of Coulomb + first step of exchange...
 Exchange contribution is evaluated for MOs 1 to 5.
   1% done.
  13% done.
  25% done.
  40% done.
  53% done.
  67% done.
  84% done.
 100% done.
 Fitting and assembly step of exchange...
 CPU time [min]:     2.095                   Wall time [min]:     0.042
 
 Second step of Coulomb...
   1% done.
  13% done.
  25% done.
  40% done.
  53% done.
  67% done.
  84% done.
 100% done.
 CPU time [min]:     2.137                   Wall time [min]:     0.043
 
 Gradient norm:      2.5484E-07
 DIIS is running in this iteration step.
 RMS of [F,P]:                                         0.00000000228569
 RMS of difference density:                            0.00000001540812
 Gap [au]:  0.45624546
 ALPHA OCC:   5
 BETA  OCC:   5
 
 ***HARTREE-FOCK ENERGY IN STEP  10 IS        -56.2233198216069781 [AU]
 
 Step comparison  Energy Drift [au]  DIIS error drift  Gradient drift
        9            2.0876E-11         2.6250E-08       3.6671E-06
 ======================================================================
 ITERATION STEP  11
 CPU time [min]:     2.162                   Wall time [min]:     0.043
 

 SCF control                  : diis
 Damping factor/level shift   : 0.000/0.000
 DIIS [start/end/frequency]   :   2 /200 /  1

 Constructing Fock-matrix...
 
 Pipek-Mezey localization...
 Step  Convergence
   1   0.041463722467
   2   0.038877834284
   3   0.000288249402
   4   0.000006075888
   5   0.000000150011
   6   0.000000005258
   7   0.000000000147
   8   0.000000000005
   9   0.000000000000
 CPU time [min]:     2.185                   Wall time [min]:     0.044
 
 Constructing local fitting domains...
 Local fitting domains are unchanged.
 
 First step of Coulomb + first step of exchange...
 Exchange contribution is evaluated for MOs 1 to 5.
   1% done.
  13% done.
  25% done.
  40% done.
  53% done.
  67% done.
  84% done.
 100% done.
 Fitting and assembly step of exchange...
 CPU time [min]:     2.303                   Wall time [min]:     0.046
 
 Second step of Coulomb...
   1% done.
  13% done.
  25% done.
  40% done.
  53% done.
  67% done.
  84% done.
 100% done.
 CPU time [min]:     2.346                   Wall time [min]:     0.046
 
 Gradient norm:      2.1502E-08
 DIIS is running in this iteration step.
 RMS of [F,P]:                                         0.00000000023232
 RMS of difference density:                            0.00000000087077
 Gap [au]:  0.45624547
 ALPHA OCC:   5
 BETA  OCC:   5
 
 ***HARTREE-FOCK ENERGY IN STEP  11 IS        -56.2233198216068928 [AU]
 
 Step comparison  Energy Drift [au]  DIIS error drift  Gradient drift
       10           -8.5265E-14         2.0534E-09       2.3333E-07
 Warning! The energy goes uphill (with respect to previous step).
 
 The SCF iteration has converged.
 An extra iteration will be performed to calculate accurate SCF energy.
 
 ======================================================================
 ITERATION STEP  12
 CPU time [min]:     2.398                   Wall time [min]:     0.047
 

 SCF control                  : diis
 Damping factor/level shift   : 0.000/0.000
 DIIS [start/end/frequency]   :   2 /200 /  1

 Constructing Fock-matrix...
 
 Pipek-Mezey localization...
 Step  Convergence
   1   0.041446683433
   2   0.039520089199
   3   0.000363270196
   4   0.000006782831
   5   0.000000175656
   6   0.000000005335
   7   0.000000000176
   8   0.000000000006
   9   0.000000000000
 CPU time [min]:     2.421                   Wall time [min]:     0.048
 
 Constructing local fitting domains...
 Local fitting domains are unchanged.
 
 First step of Coulomb + first step of exchange...
 Exchange contribution is evaluated for MOs 1 to 5.
   1% done.
  13% done.
  25% done.
  40% done.
  53% done.
  67% done.
  84% done.
 100% done.
 Fitting and assembly step of exchange...
 CPU time [min]:     2.622                   Wall time [min]:     0.051
 
 Second step of Coulomb...
   1% done.
  13% done.
  25% done.
  40% done.
  53% done.
  67% done.
  84% done.
 100% done.
 CPU time [min]:     2.664                   Wall time [min]:     0.051
 
 Gradient norm:      4.8078E-09
 RMS of [F,P]:                                         0.00000000005698
 RMS of difference density:                            0.00000000013654
 Gap [au]:  0.45624546
 ALPHA OCC:   5
 BETA  OCC:   5
 
 ***HARTREE-FOCK ENERGY IN STEP  12 IS        -56.2233198216070491 [AU]
 
 Step comparison  Energy Drift [au]  DIIS error drift  Gradient drift
       11            1.5632E-13         1.7534E-10       1.6694E-08
 ======================================================================
 
 SUCCESS...
 THE SCF ITERATION HAS CONVERGED!
 
                   A   
 FINAL ALPHA OCC:   5
 FINAL BETA  OCC:   5
 
 ***FINAL HARTREE-FOCK ENERGY:        -56.2233198216070491 [AU]
 
 Orbital energies [au]:
      Irrep         Alpha          Beta
    1   A        -15.542842     -15.542842
    2   A         -1.138513      -1.138513
    3   A         -0.625506      -0.625506
    4   A         -0.625466      -0.625466
    5   A         -0.429749      -0.429749
 
    6   A          0.026496       0.026496
    7   A          0.043771       0.043771
    8   A          0.043772       0.043772
    9   A          0.097880       0.097880
   10   A          0.131951       0.131951
   11   A          0.139416       0.139416
   12   A          0.139417       0.139417
   13   A          0.183417       0.183417
   14   A          0.183420       0.183420
   15   A          0.188494       0.188494
   16   A          0.188496       0.188496
   17   A          0.209465       0.209465
   18   A          0.283495       0.283495
   19   A          0.292928       0.292928
   20   A          0.297560       0.297560
   21   A          0.297560       0.297560
   22   A          0.353460       0.353460
   23   A          0.381622       0.381622
   24   A          0.381633       0.381633
   25   A          0.389174       0.389174
   26   A          0.389175       0.389175
   27   A          0.423080       0.423080
   28   A          0.473355       0.473355
   29   A          0.473362       0.473362
   30   A          0.558471       0.558471
   31   A          0.558480       0.558480
   32   A          0.558972       0.558972
   33   A          0.594319       0.594319
   34   A          0.682815       0.682815
   35   A          0.682820       0.682820
   36   A          0.697724       0.697724
   37   A          0.700358       0.700358
   38   A          0.717397       0.717397
   39   A          0.717400       0.717400
   40   A          0.750653       0.750653
   41   A          0.778479       0.778479
   42   A          0.778502       0.778502
   43   A          0.780106       0.780106
   44   A          0.830052       0.830052
   45   A          0.830061       0.830061
   46   A          0.849672       0.849672
   47   A          0.857785       0.857785
   48   A          0.857793       0.857793
   49   A          0.873082       0.873082
   50   A          0.873095       0.873095
   51   A          0.980552       0.980552
   52   A          1.014329       1.014329
   53   A          1.014352       1.014352
   54   A          1.134355       1.134355
   55   A          1.222731       1.222731
   56   A          1.222736       1.222736
   57   A          1.353116       1.353116
   58   A          1.353121       1.353121
   59   A          1.353354       1.353354
   60   A          1.372076       1.372076
[...]
  205   A         10.936359      10.936359
  206   A         11.666005      11.666005
  207   A         12.140049      12.140049
  208   A         12.140223      12.140223
  209   A         12.201339      12.201339
  210   A         12.293243      12.293243
  211   A         12.293623      12.293623
  212   A         12.968655      12.968655
  213   A         13.068705      13.068705
  214   A         13.068958      13.068958
  215   A         14.678070      14.678070
  216   A         14.971625      14.971625
  217   A         14.972016      14.972016
  218   A         36.488276      36.488276
 
 RETURNING FROM SCF ALGORITHM
 ======================================================================

 ************************ 2026-02-26 16:02:02 *************************
 Executing integ...

 Allocation of 46.0 Gbytes of memory...
 
 
 Basis set information:
 
 Maximum angular momentum: h
 Maximum number of contracted Gaussians:   11
 Maximum number of primitive Gaussians:    14
 Spherical harmonic GTOs are used.
 
 
 Conventional basis set:
 
   1  H  aug-cc-pvqz [ 7s 4p 3d 2f | 5s 4p 3d 2f ]
   2  H  aug-cc-pvqz [ 7s 4p 3d 2f | 5s 4p 3d 2f ]
   3  H  aug-cc-pvqz [ 7s 4p 3d 2f | 5s 4p 3d 2f ]
   4  N  aug-cc-pvqz [ 13s 7p 4d 3f 2g | 6s 5p 4d 3f 2g ]
 
 Basis functions:
            1             2             3             4             5             6             7             8             9            10
    0    1H1s          1H2s          1H3s          1H4s          1H5s          1H1pz         1H1py         1H1px         1H2pz         1H2py     
    1    1H2px         1H3pz         1H3py         1H3px         1H4pz         1H4py         1H4px         1H1d-2        1H1d-1        1H1d0     
    2    1H1d+1        1H1d+2        1H2d-2        1H2d-1        1H2d0         1H2d+1        1H2d+2        1H3d-2        1H3d-1        1H3d0     
    3    1H3d+1        1H3d+2        1H1f-3        1H1f-2        1H1f-1        1H1f0         1H1f+1        1H1f+2        1H1f+3        1H2f-3    
    4    1H2f-2        1H2f-1        1H2f0         1H2f+1        1H2f+2        1H2f+3        2H1s          2H2s          2H3s          2H4s      
    5    2H5s          2H1pz         2H1py         2H1px         2H2pz         2H2py         2H2px         2H3pz         2H3py         2H3px     
    6    2H4pz         2H4py         2H4px         2H1d-2        2H1d-1        2H1d0         2H1d+1        2H1d+2        2H2d-2        2H2d-1    
    7    2H2d0         2H2d+1        2H2d+2        2H3d-2        2H3d-1        2H3d0         2H3d+1        2H3d+2        2H1f-3        2H1f-2    
    8    2H1f-1        2H1f0         2H1f+1        2H1f+2        2H1f+3        2H2f-3        2H2f-2        2H2f-1        2H2f0         2H2f+1    
    9    2H2f+2        2H2f+3        3H1s          3H2s          3H3s          3H4s          3H5s          3H1pz         3H1py         3H1px     
   10    3H2pz         3H2py         3H2px         3H3pz         3H3py         3H3px         3H4pz         3H4py         3H4px         3H1d-2    
   11    3H1d-1        3H1d0         3H1d+1        3H1d+2        3H2d-2        3H2d-1        3H2d0         3H2d+1        3H2d+2        3H3d-2    
   12    3H3d-1        3H3d0         3H3d+1        3H3d+2        3H1f-3        3H1f-2        3H1f-1        3H1f0         3H1f+1        3H1f+2    
   13    3H1f+3        3H2f-3        3H2f-2        3H2f-1        3H2f0         3H2f+1        3H2f+2        3H2f+3        4N1s          4N2s      
   14    4N3s          4N4s          4N5s          4N6s          4N1pz         4N1py         4N1px         4N2pz         4N2py         4N2px     
   15    4N3pz         4N3py         4N3px         4N4pz         4N4py         4N4px         4N5pz         4N5py         4N5px         4N1d-2    
   16    4N1d-1        4N1d0         4N1d+1        4N1d+2        4N2d-2        4N2d-1        4N2d0         4N2d+1        4N2d+2        4N3d-2    
   17    4N3d-1        4N3d0         4N3d+1        4N3d+2        4N4d-2        4N4d-1        4N4d0         4N4d+1        4N4d+2        4N1f-3    
   18    4N1f-2        4N1f-1        4N1f0         4N1f+1        4N1f+2        4N1f+3        4N2f-3        4N2f-2        4N2f-1        4N2f0     
   19    4N2f+1        4N2f+2        4N2f+3        4N3f-3        4N3f-2        4N3f-1        4N3f0         4N3f+1        4N3f+2        4N3f+3    
   20    4N1g-4        4N1g-3        4N1g-2        4N1g-1        4N1g0         4N1g+1        4N1g+2        4N1g+3        4N1g+4        4N2g-4    
   21    4N2g-3        4N2g-2        4N2g-1        4N2g0         4N2g+1        4N2g+2        4N2g+3        4N2g+4    
 
 Maximum number of basis functions per shell:   21
 Total number of basis functions:    218
 
 
 Fitting basis set for the SCF calculation:
 
   1  H  aug-cc-pvqz-ri-jk [ 5s 4p 4d 3f 2g | 5s 4p 4d 3f 2g ]
   2  H  aug-cc-pvqz-ri-jk [ 5s 4p 4d 3f 2g | 5s 4p 4d 3f 2g ]
   3  H  aug-cc-pvqz-ri-jk [ 5s 4p 4d 3f 2g | 5s 4p 4d 3f 2g ]
   4  N  aug-cc-pvqz-ri-jk [ 11s 8p 6d 4f 3g 2h | 11s 8p 6d 4f 3g 2h ]
 
 Basis functions:
            1             2             3             4             5             6             7             8             9            10
    0    1H1s          1H2s          1H3s          1H4s          1H5s          1H1pz         1H1py         1H1px         1H2pz         1H2py     
    1    1H2px         1H3pz         1H3py         1H3px         1H4pz         1H4py         1H4px         1H1d-2        1H1d-1        1H1d0     
    2    1H1d+1        1H1d+2        1H2d-2        1H2d-1        1H2d0         1H2d+1        1H2d+2        1H3d-2        1H3d-1        1H3d0     
    3    1H3d+1        1H3d+2        1H4d-2        1H4d-1        1H4d0         1H4d+1        1H4d+2        1H1f-3        1H1f-2        1H1f-1    
    4    1H1f0         1H1f+1        1H1f+2        1H1f+3        1H2f-3        1H2f-2        1H2f-1        1H2f0         1H2f+1        1H2f+2    
    5    1H2f+3        1H3f-3        1H3f-2        1H3f-1        1H3f0         1H3f+1        1H3f+2        1H3f+3        1H1g-4        1H1g-3    
    6    1H1g-2        1H1g-1        1H1g0         1H1g+1        1H1g+2        1H1g+3        1H1g+4        1H2g-4        1H2g-3        1H2g-2    
    7    1H2g-1        1H2g0         1H2g+1        1H2g+2        1H2g+3        1H2g+4        2H1s          2H2s          2H3s          2H4s      
    8    2H5s          2H1pz         2H1py         2H1px         2H2pz         2H2py         2H2px         2H3pz         2H3py         2H3px     
    9    2H4pz         2H4py         2H4px         2H1d-2        2H1d-1        2H1d0         2H1d+1        2H1d+2        2H2d-2        2H2d-1    
   10    2H2d0         2H2d+1        2H2d+2        2H3d-2        2H3d-1        2H3d0         2H3d+1        2H3d+2        2H4d-2        2H4d-1    
   11    2H4d0         2H4d+1        2H4d+2        2H1f-3        2H1f-2        2H1f-1        2H1f0         2H1f+1        2H1f+2        2H1f+3    
   12    2H2f-3        2H2f-2        2H2f-1        2H2f0         2H2f+1        2H2f+2        2H2f+3        2H3f-3        2H3f-2        2H3f-1    
   13    2H3f0         2H3f+1        2H3f+2        2H3f+3        2H1g-4        2H1g-3        2H1g-2        2H1g-1        2H1g0         2H1g+1    
   14    2H1g+2        2H1g+3        2H1g+4        2H2g-4        2H2g-3        2H2g-2        2H2g-1        2H2g0         2H2g+1        2H2g+2    
   15    2H2g+3        2H2g+4        3H1s          3H2s          3H3s          3H4s          3H5s          3H1pz         3H1py         3H1px     
   16    3H2pz         3H2py         3H2px         3H3pz         3H3py         3H3px         3H4pz         3H4py         3H4px         3H1d-2    
   17    3H1d-1        3H1d0         3H1d+1        3H1d+2        3H2d-2        3H2d-1        3H2d0         3H2d+1        3H2d+2        3H3d-2    
   18    3H3d-1        3H3d0         3H3d+1        3H3d+2        3H4d-2        3H4d-1        3H4d0         3H4d+1        3H4d+2        3H1f-3    
   19    3H1f-2        3H1f-1        3H1f0         3H1f+1        3H1f+2        3H1f+3        3H2f-3        3H2f-2        3H2f-1        3H2f0     
   20    3H2f+1        3H2f+2        3H2f+3        3H3f-3        3H3f-2        3H3f-1        3H3f0         3H3f+1        3H3f+2        3H3f+3    
   21    3H1g-4        3H1g-3        3H1g-2        3H1g-1        3H1g0         3H1g+1        3H1g+2        3H1g+3        3H1g+4        3H2g-4    
   22    3H2g-3        3H2g-2        3H2g-1        3H2g0         3H2g+1        3H2g+2        3H2g+3        3H2g+4        4N1s          4N2s      
   23    4N3s          4N4s          4N5s          4N6s          4N7s          4N8s          4N9s          4N10s         4N11s         4N1pz     
   24    4N1py         4N1px         4N2pz         4N2py         4N2px         4N3pz         4N3py         4N3px         4N4pz         4N4py     
   25    4N4px         4N5pz         4N5py         4N5px         4N6pz         4N6py         4N6px         4N7pz         4N7py         4N7px     
   26    4N8pz         4N8py         4N8px         4N1d-2        4N1d-1        4N1d0         4N1d+1        4N1d+2        4N2d-2        4N2d-1    
   27    4N2d0         4N2d+1        4N2d+2        4N3d-2        4N3d-1        4N3d0         4N3d+1        4N3d+2        4N4d-2        4N4d-1    
   28    4N4d0         4N4d+1        4N4d+2        4N5d-2        4N5d-1        4N5d0         4N5d+1        4N5d+2        4N6d-2        4N6d-1    
   29    4N6d0         4N6d+1        4N6d+2        4N1f-3        4N1f-2        4N1f-1        4N1f0         4N1f+1        4N1f+2        4N1f+3    
   30    4N2f-3        4N2f-2        4N2f-1        4N2f0         4N2f+1        4N2f+2        4N2f+3        4N3f-3        4N3f-2        4N3f-1    
   31    4N3f0         4N3f+1        4N3f+2        4N3f+3        4N4f-3        4N4f-2        4N4f-1        4N4f0         4N4f+1        4N4f+2    
   32    4N4f+3        4N1g-4        4N1g-3        4N1g-2        4N1g-1        4N1g0         4N1g+1        4N1g+2        4N1g+3        4N1g+4    
   33    4N2g-4        4N2g-3        4N2g-2        4N2g-1        4N2g0         4N2g+1        4N2g+2        4N2g+3        4N2g+4        4N3g-4    
   34    4N3g-3        4N3g-2        4N3g-1        4N3g0         4N3g+1        4N3g+2        4N3g+3        4N3g+4        4N1h-5        4N1h-4    
   35    4N1h-3        4N1h-2        4N1h-1        4N1h0         4N1h+1        4N1h+2        4N1h+3        4N1h+4        4N1h+5        4N2h-5    
   36    4N2h-4        4N2h-3        4N2h-2        4N2h-1        4N2h0         4N2h+1        4N2h+2        4N2h+3        4N2h+4        4N2h+5    
 
 Maximum number of basis functions per shell:   30
 Total number of basis functions:    370
 
 
 Fitting basis set for the correlation calculation:
 
   1  H  aug-cc-pvqz-ri [ 6s 5p 4d 3f 2g | 6s 5p 4d 3f 2g ]
   2  H  aug-cc-pvqz-ri [ 6s 5p 4d 3f 2g | 6s 5p 4d 3f 2g ]
   3  H  aug-cc-pvqz-ri [ 6s 5p 4d 3f 2g | 6s 5p 4d 3f 2g ]
   4  N  aug-cc-pvqz-ri [ 9s 8p 7d 6f 4g 2h | 9s 8p 7d 6f 4g 2h ]
 
 Basis functions:
            1             2             3             4             5             6             7             8             9            10
    0    1H1s          1H2s          1H3s          1H4s          1H5s          1H6s          1H1pz         1H1py         1H1px         1H2pz     
    1    1H2py         1H2px         1H3pz         1H3py         1H3px         1H4pz         1H4py         1H4px         1H5pz         1H5py     
    2    1H5px         1H1d-2        1H1d-1        1H1d0         1H1d+1        1H1d+2        1H2d-2        1H2d-1        1H2d0         1H2d+1    
    3    1H2d+2        1H3d-2        1H3d-1        1H3d0         1H3d+1        1H3d+2        1H4d-2        1H4d-1        1H4d0         1H4d+1    
    4    1H4d+2        1H1f-3        1H1f-2        1H1f-1        1H1f0         1H1f+1        1H1f+2        1H1f+3        1H2f-3        1H2f-2    
    5    1H2f-1        1H2f0         1H2f+1        1H2f+2        1H2f+3        1H3f-3        1H3f-2        1H3f-1        1H3f0         1H3f+1    
    6    1H3f+2        1H3f+3        1H1g-4        1H1g-3        1H1g-2        1H1g-1        1H1g0         1H1g+1        1H1g+2        1H1g+3    
    7    1H1g+4        1H2g-4        1H2g-3        1H2g-2        1H2g-1        1H2g0         1H2g+1        1H2g+2        1H2g+3        1H2g+4    
    8    2H1s          2H2s          2H3s          2H4s          2H5s          2H6s          2H1pz         2H1py         2H1px         2H2pz     
    9    2H2py         2H2px         2H3pz         2H3py         2H3px         2H4pz         2H4py         2H4px         2H5pz         2H5py     
   10    2H5px         2H1d-2        2H1d-1        2H1d0         2H1d+1        2H1d+2        2H2d-2        2H2d-1        2H2d0         2H2d+1    
   11    2H2d+2        2H3d-2        2H3d-1        2H3d0         2H3d+1        2H3d+2        2H4d-2        2H4d-1        2H4d0         2H4d+1    
   12    2H4d+2        2H1f-3        2H1f-2        2H1f-1        2H1f0         2H1f+1        2H1f+2        2H1f+3        2H2f-3        2H2f-2    
   13    2H2f-1        2H2f0         2H2f+1        2H2f+2        2H2f+3        2H3f-3        2H3f-2        2H3f-1        2H3f0         2H3f+1    
   14    2H3f+2        2H3f+3        2H1g-4        2H1g-3        2H1g-2        2H1g-1        2H1g0         2H1g+1        2H1g+2        2H1g+3    
   15    2H1g+4        2H2g-4        2H2g-3        2H2g-2        2H2g-1        2H2g0         2H2g+1        2H2g+2        2H2g+3        2H2g+4    
   16    3H1s          3H2s          3H3s          3H4s          3H5s          3H6s          3H1pz         3H1py         3H1px         3H2pz     
   17    3H2py         3H2px         3H3pz         3H3py         3H3px         3H4pz         3H4py         3H4px         3H5pz         3H5py     
   18    3H5px         3H1d-2        3H1d-1        3H1d0         3H1d+1        3H1d+2        3H2d-2        3H2d-1        3H2d0         3H2d+1    
   19    3H2d+2        3H3d-2        3H3d-1        3H3d0         3H3d+1        3H3d+2        3H4d-2        3H4d-1        3H4d0         3H4d+1    
   20    3H4d+2        3H1f-3        3H1f-2        3H1f-1        3H1f0         3H1f+1        3H1f+2        3H1f+3        3H2f-3        3H2f-2    
   21    3H2f-1        3H2f0         3H2f+1        3H2f+2        3H2f+3        3H3f-3        3H3f-2        3H3f-1        3H3f0         3H3f+1    
   22    3H3f+2        3H3f+3        3H1g-4        3H1g-3        3H1g-2        3H1g-1        3H1g0         3H1g+1        3H1g+2        3H1g+3    
   23    3H1g+4        3H2g-4        3H2g-3        3H2g-2        3H2g-1        3H2g0         3H2g+1        3H2g+2        3H2g+3        3H2g+4    
   24    4N1s          4N2s          4N3s          4N4s          4N5s          4N6s          4N7s          4N8s          4N9s          4N1pz     
   25    4N1py         4N1px         4N2pz         4N2py         4N2px         4N3pz         4N3py         4N3px         4N4pz         4N4py     
   26    4N4px         4N5pz         4N5py         4N5px         4N6pz         4N6py         4N6px         4N7pz         4N7py         4N7px     
   27    4N8pz         4N8py         4N8px         4N1d-2        4N1d-1        4N1d0         4N1d+1        4N1d+2        4N2d-2        4N2d-1    
   28    4N2d0         4N2d+1        4N2d+2        4N3d-2        4N3d-1        4N3d0         4N3d+1        4N3d+2        4N4d-2        4N4d-1    
   29    4N4d0         4N4d+1        4N4d+2        4N5d-2        4N5d-1        4N5d0         4N5d+1        4N5d+2        4N6d-2        4N6d-1    
   30    4N6d0         4N6d+1        4N6d+2        4N7d-2        4N7d-1        4N7d0         4N7d+1        4N7d+2        4N1f-3        4N1f-2    
   31    4N1f-1        4N1f0         4N1f+1        4N1f+2        4N1f+3        4N2f-3        4N2f-2        4N2f-1        4N2f0         4N2f+1    
   32    4N2f+2        4N2f+3        4N3f-3        4N3f-2        4N3f-1        4N3f0         4N3f+1        4N3f+2        4N3f+3        4N4f-3    
   33    4N4f-2        4N4f-1        4N4f0         4N4f+1        4N4f+2        4N4f+3        4N5f-3        4N5f-2        4N5f-1        4N5f0     
   34    4N5f+1        4N5f+2        4N5f+3        4N6f-3        4N6f-2        4N6f-1        4N6f0         4N6f+1        4N6f+2        4N6f+3    
   35    4N1g-4        4N1g-3        4N1g-2        4N1g-1        4N1g0         4N1g+1        4N1g+2        4N1g+3        4N1g+4        4N2g-4    
   36    4N2g-3        4N2g-2        4N2g-1        4N2g0         4N2g+1        4N2g+2        4N2g+3        4N2g+4        4N3g-4        4N3g-3    
   37    4N3g-2        4N3g-1        4N3g0         4N3g+1        4N3g+2        4N3g+3        4N3g+4        4N4g-4        4N4g-3        4N4g-2    
   38    4N4g-1        4N4g0         4N4g+1        4N4g+2        4N4g+3        4N4g+4        4N1h-5        4N1h-4        4N1h-3        4N1h-2    
   39    4N1h-1        4N1h0         4N1h+1        4N1h+2        4N1h+3        4N1h+4        4N1h+5        4N2h-5        4N2h-4        4N2h-3    
   40    4N2h-2        4N2h-1        4N2h0         4N2h+1        4N2h+2        4N2h+3        4N2h+4        4N2h+5    
 
 Maximum number of basis functions per shell:   42
 Total number of basis functions:    408
 
 
 Old basis set for SCF restart
 
   1  H  def2-svp [ 4s 1p | 2s 1p ]
   2  H  def2-svp [ 4s 1p | 2s 1p ]
   3  H  def2-svp [ 4s 1p | 2s 1p ]
   4  N  def2-svp [ 7s 4p 1d | 3s 2p 1d ]
 
 Basis functions:
            1             2             3             4             5             6             7             8             9            10
    0    1H1s          1H2s          1H1pz         1H1py         1H1px         2H1s          2H2s          2H1pz         2H1py         2H1px     
    1    3H1s          3H2s          3H1pz         3H1py         3H1px         4N1s          4N2s          4N3s          4N1pz         4N1py     
    2    4N1px         4N2pz         4N2py         4N2px         4N1d-2        4N1d-1        4N1d0         4N1d+1        4N1d+2    
 
 Maximum number of basis functions per shell:   42
 Total number of basis functions:     29
 
 
 Calculation of prescreening integrals...
 CPU time [min]:     0.240                   Wall time [min]:     0.007
 
 Calculation of two-center Coulomb integrals...
   1% done.
  12% done.
  24% done.
  35% done.
  57% done.
  74% done.
  90% done.
 100% done.
 CPU time [min]:     0.255                   Wall time [min]:     0.007
 
 Cholesky decomposition of the inverse of the two-center matrix...
 CPU time [min]:     0.274                   Wall time [min]:     0.007
 
 Calculation of three-center Coulomb integrals...
   1% done.
  13% done.
  25% done.
  40% done.
  53% done.
  67% done.
  84% done.
 100% done.
 CPU time [min]:     1.136                   Wall time [min]:     0.021

 ************************ 2026-02-26 16:02:03 *************************
 Executing drpa...

 Three-index integral transformation and DF-MP2 calculation
 Allocation of 46.0 Gbytes of memory...
 
 Minimal memory requirement for (ai|P) integrals:        5.4 MB

 Calculating (ai|P) integrals...
 Number of integral batches:    1
 Occupied indices per batch:    4
 
 Transforming integrals of batch 1...
 CPU time [min]:     0.132                   Wall time [min]:     0.007
 
 
 
 Reference energy [au]:                       -56.223319821607
 DF-MP2 singlet pair energy [au]:              -0.199572674236
 DF-MP2 triplet pair energy [au]:              -0.054653378510
 DF-SCS-MP2 correlation energy [au]:           -0.257705001919
 DF-SCS-MP2 energy [au]:                      -56.481024823526
 DF-SOS-MP2 correlation energy [au]:           -0.259444476506
 DF-SOS-MP2 energy [au]:                      -56.482764298113
 DF-MP2 correlation energy [au]:               -0.254226052746
 DF-MP2 energy [au]:                          -56.477545874353
 
 ************************ 2026-02-26 16:02:04 *************************
                      Normal termination of mrcc.
 **********************************************************************
