 **********************************************************************
                          MRCC program system
 **********************************************************************
 
                              Written by
     Mihaly Kallay, Peter R. Nagy, David Mester, Laszlo Gyevi-Nagy,
        Jozsef Csoka, P. Bernat Szabo, Zoltan Rolik, Gyula Samu,
     Jozsef Csontos, Bence Hegely, Adam Ganyecz, Istvan Ladjanszki,
       Lorant Szegedy, Bence Ladoczki, Klara Petrov, Mate Farkas,
                    Pal D. Mezei, and Reka A. Horvath
 
        Department of Physical Chemistry and Materials Science
            Budapest University of Technology and Economics
                  Budapest P.O.Box 91, H-1521 Hungary
 
                              www.mrcc.hu
 
                     Release date: August 28, 2023

 ************************ 2026-02-26 22:40:23 *************************
 Executing minp...

 Reading input from MINP...
 
 Input file:
 
charge=0
mult=1
calc=DF-MP2
basis=aug-cc-pVTZ
symm=off
verbosity=3
unit=angs
scfalg=locfit1
scfmaxit=200
scftol=8
basis_sm=def2-SVP
scfiguess=small
mem=46GB
ghost=serialno
5-12

geom=xyz
12

N      4.08580437245    8.74042628524    1.52051993408
H      3.73412022664    8.22835482065    0.70317042895
H      4.59792989480    9.55765858900    1.16892160276
H      3.26851213636    9.09206461954    2.03262088514
N      6.65105517382    4.08582522547    3.60997942338
H      7.16318242072    3.26858901465    3.96157875919
H      5.83376531255    3.73418533747    3.09787832187
H      6.29937278831    4.59789384265    4.42732807018
N      8.74045473454    6.65107191074    4.08577558721
H      9.55772968319    6.29943531034    4.59786809656
H      9.09213147006    7.16314798552    3.26841604077
H      8.22831293566    5.83383789254    3.73416418411
 
 
 Checking keyword combinations...
 
 Keywords:
 
 active=none
 agrid=ld0006-ld0590
 agrid_pssp=ld0006-ld0194
 agrid_pssp_sm=ld0006-ld0074
 basis=aug-cc-pvtz
 basis_sm=def2-svp
 basopt=off
 bfbasis=none
 bfgsmem=10
 bfgstol=1.0d-3
 boysalg=jacobi
 bpcompo=0.985
 bpcompv=0.98
 bpdfo=0.985
 bpocc=0.985
 bppdo=0.985
 bppdv=0.98
 bpedo=0.985
 bpedv=0.98
 calc=mp2
 ccmaxit=50
 ccprog=mrcc
 ccsdalg=disk
 ccsdmkl=seq
 ccsdrest=off
 ccsdthreads=2
 cctol=6
 charge=0
 cialg=disk
 ciguess=off
 cmpgrp=auto
 comprest=off
 coord_sys=ric
 core=frozen
 corembed=off
 csapprox=off
 cvs=off
 dboc=off
 delocsomofact=
 dendec=cholesky
 dens=0
 denscorr=0
 dfalg=lineq
 dfbasis_cab=none
 dfbasis_cor=auto
 dfbasis_scf=auto
 dfbasis_scf_sm=auto
 dfintran=drpa
 dft=off
 dhexc=adc(2)
 diag=david
 docc=
 domrad=10.d0
 drpaalg=fit
 dual=off
 dual_df=off
 ecp=auto
 edisp=off
 edisp_embed=off
 embed=off
 epairestfact=off
 epairscale=1.d0
 etemp=300
 epert=none
 eps=
 espcharge=off
 excrad=1.0
 excrad_fin=0.100000000D-02
 fitting=coulomb
 fmm=off
 fmmord=8
 fnonorb=
 freq=off
 gamma=1.1d0
 gauss=spher
 geom=xyz
 gopt=off
 ghost=serialno
 gtol=7
 grdens=off
 grid=auto
 grid_sm=auto
 gridbatch_cos=2000
 grtol=10
 guido_ct=off
 hamilton=dc
 iface=none
 intalg=auto
 ip_ea=off
 itol=12
 laptol=1.d-2
 lccoporder=trffirst
 lcorthr=normal
 lccrest=off
 ldfgrad_tol=8
 lmp2dens=on
 lnoepso=0.d0
 lnoepsv=1e-6
 localcc=off
 localcorrsymm=off
 locintrf=disk
 mact=
 maxact=off
 maxdim=200
 maxex=0
 maxmicroit=100
 mcscfiguess=hf
 mem=46gb
 mmprog=
 molden=on
 mpitasks=1
 mulmet=0
 mult=1
 nab=off
 nacto=0
 nactv=0
 naf_amp=3.16d-3
 naf_cor=off
 naf_f12=off
 naf_scf=off
 nafalg=albe
 nafdens=off
 naftyp=
 nchol=auto
 ndeps=1e-3
 nstate=1
 nsing=0
 nto=off
 ntrip=0
 num_grad=off
 occ=
 occri=off
 oniom=off
 oniom_eechg=off
 oniom_pcm=off
 oniom_qcorr=off
 optalg=
 optmaxit=50
 optetol=1e-6
 optex=0
 optgtol=1e-4
 optstol=1e-3
 orblocc=off
 orbloce=off
 orbloco=off
 orblocv=off
 orblocguess=cholesky
 osveps=1e-3
 ovirt=off
 ovltol=1e-7
 ovosnorb=80.0
 pao_subsys_tol=1e-3
 pcm=off
 popul=off
 pressure=100000
 pssp=off
 ptfreq=0.0
 ptthreads=2
 qmreg=
 qmmm=off
 qro=off
 qscf=off
 redcost_exc=off
 redcost_tddft=off
 refdet=none
 rest=0
 rgrid=log3
 rism=off
 rohfcore=semicanonical
 rohftype=semicanonical
 scfalg=locfit1
 scf_conv=auto
 scfdamp=0.0d0
 scfdamp_mode=off
 scfdamp_end=200
 scfdamp_dampstep=0.d0
 scfdamp_dtol=0.0d0
 scfdamp_maxfact=0.0d0
 scfdamp_minfact=0.0d0
 scfdiis=on
 scfdiis_dtol=0.0d0
 scfdiis_end=200
 scfdiis_start=2
 scfdiis_step=1
 scfdiis_watch=off
 scfdiis_wrange=10
 scfdiis_wlimit=5
 scfdiis_delmax=2
 scfdtol=9
 scfext=10
 scfguessdens=
 scfiguess=small
 scfloc=pm
 scflshift=0.20
 scflshift_end=8
 scflshift_dtol=0.0
 scflshift_gaptol=0.20
 scfmaxit=200
 scftype=
 scftol=8
 scspe=1.d0
 scsph=1.d0
 scsps=1.2d0
 scsps_t=1.2d0
 scspt=0.33333333333333
 scspt_t=0.33333333333333
 scspv=1.d0
 spairtol=1e-4
 sqmprog=
 subminp=top
 symm=0
 talg=occ
 temp=298.15
 test=off
 theodore=off
 tlmo=0.999
 tpao=0.94
 tprint=off
 uncontract=off
 unit=angs
 usedisk=2
 verbosity=3
 wpairtol=0.100000000E-05
 
 Calculating integrals for small-basis SCF...

 ************************ 2026-02-26 22:40:23 *************************
 Executing integ...

 Allocation of 46.0 Gbytes of memory...
 
 
 Number of atoms:                 12
 Charge:                           0
 Number of electrons:             10
 Number of core electrons:         2
 Spin multiplicity:                1
 
                 Cartesian coordinates [bohr]      Atomic mass [AMU]  Z
   1  N     7.72105127   16.51701190    2.87336624    14.003074       7
   2  H     7.05646455   15.54933707    1.32879953     1.007825       1
   3  H     8.68882825   18.06135713    2.20894169     1.007825       1
   4  H     6.17659278   17.18151205    3.84109679     1.007825       1
   5  N    12.56867272    7.72109067    6.82187243     0.000000       0
   6  H    13.53645296    6.17673805    7.48629888     0.000000       0
   7  H    11.02421872    7.05658759    5.85414160     0.000000       0
   8  H    11.90408933    8.68876012    8.36643752     0.000000       0
   9  N    16.51706566   12.56870435    7.72099687     0.000000       0
  10  H    18.06149148   11.90420748    8.68871146     0.000000       0
  11  H    17.18163838   13.53638789    6.17641118     0.000000       0
  12  H    15.54925792   11.02435588    7.05654762     0.000000       0
 
 This molecule is an asymmetric top.
 
 Point group: C1  
 Computational point group: C1  
 
 Cartesian coordinates in standard orientation [bohr]
   1  N     1.62307854   -0.00057993    0.01960877
   2  H     2.11514296    1.34582457   -1.28761115
   3  H     2.22821745   -1.71179079   -0.66494857
   4  H     2.64159943    0.36501466    1.62969283
   5  N    -8.71204464    3.10395095   -0.05443198
   6  H   -10.59117721    3.57795115   -0.13970039
   7  H    -7.69743785    4.71280404   -0.43596870
   8  H    -8.32924886    2.60716166    1.78143412
   9  N    -8.67974362   -3.21021456    0.11248271
  10  H   -10.52037478   -3.80969645    0.23888341
  11  H    -7.85959056   -4.18328126   -1.35186132
  12  H    -8.72038843   -1.33838227   -0.39520689
 
 Nuclear repulsion energy [au]:         11.785807877699
 
Warning: for H atoms in the case of dfbasis_scf=auto the AO basis is set as dfbasis_scf instead of def2-qzvp(pd)-ri-jk because the AO basis is larger. Set the dfbasis_scf=def2-qzvp(pd)-ri-jk in MINP if that is desired.
 
 
 Basis set information:
 
 Maximum angular momentum: g
 Maximum number of contracted Gaussians:   10
 Maximum number of primitive Gaussians:    14
 Spherical harmonic GTOs are used.
 
 
 Conventional basis set:
 
   1  N  def2-svp [ 7s 4p 1d | 3s 2p 1d ]
   2  H  def2-svp [ 4s 1p | 2s 1p ]
   3  H  def2-svp [ 4s 1p | 2s 1p ]
   4  H  def2-svp [ 4s 1p | 2s 1p ]
   5  N  def2-svp [ 7s 4p 1d | 3s 2p 1d ]
   6  H  def2-svp [ 4s 1p | 2s 1p ]
   7  H  def2-svp [ 4s 1p | 2s 1p ]
   8  H  def2-svp [ 4s 1p | 2s 1p ]
   9  N  def2-svp [ 7s 4p 1d | 3s 2p 1d ]
  10  H  def2-svp [ 4s 1p | 2s 1p ]
  11  H  def2-svp [ 4s 1p | 2s 1p ]
  12  H  def2-svp [ 4s 1p | 2s 1p ]
 
 Basis functions:
            1             2             3             4             5             6             7             8             9            10
    0    1N1s          1N2s          1N3s          1N1pz         1N1py         1N1px         1N2pz         1N2py         1N2px         1N1d-2    
    1    1N1d-1        1N1d0         1N1d+1        1N1d+2        2H1s          2H2s          2H1pz         2H1py         2H1px         3H1s      
    2    3H2s          3H1pz         3H1py         3H1px         4H1s          4H2s          4H1pz         4H1py         4H1px         5N1s      
    3    5N2s          5N3s          5N1pz         5N1py         5N1px         5N2pz         5N2py         5N2px         5N1d-2        5N1d-1    
    4    5N1d0         5N1d+1        5N1d+2        6H1s          6H2s          6H1pz         6H1py         6H1px         7H1s          7H2s      
    5    7H1pz         7H1py         7H1px         8H1s          8H2s          8H1pz         8H1py         8H1px         9N1s          9N2s      
    6    9N3s          9N1pz         9N1py         9N1px         9N2pz         9N2py         9N2px         9N1d-2        9N1d-1        9N1d0     
    7    9N1d+1        9N1d+2       10H1s         10H2s         10H1pz        10H1py        10H1px        11H1s         11H2s         11H1pz     
    8   11H1py        11H1px        12H1s         12H2s         12H1pz        12H1py        12H1px     
 
 Maximum number of basis functions per shell:    6
 Total number of basis functions:     87
 
 
 Fitting basis set for the SCF calculation:
 
   1  N  def2-qzvpp-ri-jk [ 14s 10p 6d 2f 1g | 10s 8p 4d 2f 1g ]
   2  H  def2-qzvpp [ 7s 3p 2d 1f | 4s 3p 2d 1f ]
   3  H  def2-qzvpp [ 7s 3p 2d 1f | 4s 3p 2d 1f ]
   4  H  def2-qzvpp [ 7s 3p 2d 1f | 4s 3p 2d 1f ]
   5  N  def2-qzvpp-ri-jk [ 14s 10p 6d 2f 1g | 10s 8p 4d 2f 1g ]
   6  H  def2-qzvpp [ 7s 3p 2d 1f | 4s 3p 2d 1f ]
   7  H  def2-qzvpp [ 7s 3p 2d 1f | 4s 3p 2d 1f ]
   8  H  def2-qzvpp [ 7s 3p 2d 1f | 4s 3p 2d 1f ]
   9  N  def2-qzvpp-ri-jk [ 14s 10p 6d 2f 1g | 10s 8p 4d 2f 1g ]
  10  H  def2-qzvpp [ 7s 3p 2d 1f | 4s 3p 2d 1f ]
  11  H  def2-qzvpp [ 7s 3p 2d 1f | 4s 3p 2d 1f ]
  12  H  def2-qzvpp [ 7s 3p 2d 1f | 4s 3p 2d 1f ]
 
 Basis functions:
            1             2             3             4             5             6             7             8             9            10
    0    1N1s          1N2s          1N3s          1N4s          1N5s          1N6s          1N7s          1N8s          1N9s          1N10s     
    1    1N1pz         1N1py         1N1px         1N2pz         1N2py         1N2px         1N3pz         1N3py         1N3px         1N4pz     
    2    1N4py         1N4px         1N5pz         1N5py         1N5px         1N6pz         1N6py         1N6px         1N7pz         1N7py     
    3    1N7px         1N8pz         1N8py         1N8px         1N1d-2        1N1d-1        1N1d0         1N1d+1        1N1d+2        1N2d-2    
    4    1N2d-1        1N2d0         1N2d+1        1N2d+2        1N3d-2        1N3d-1        1N3d0         1N3d+1        1N3d+2        1N4d-2    
    5    1N4d-1        1N4d0         1N4d+1        1N4d+2        1N1f-3        1N1f-2        1N1f-1        1N1f0         1N1f+1        1N1f+2    
    6    1N1f+3        1N2f-3        1N2f-2        1N2f-1        1N2f0         1N2f+1        1N2f+2        1N2f+3        1N1g-4        1N1g-3    
    7    1N1g-2        1N1g-1        1N1g0         1N1g+1        1N1g+2        1N1g+3        1N1g+4        2H1s          2H2s          2H3s      
    8    2H4s          2H1pz         2H1py         2H1px         2H2pz         2H2py         2H2px         2H3pz         2H3py         2H3px     
    9    2H1d-2        2H1d-1        2H1d0         2H1d+1        2H1d+2        2H2d-2        2H2d-1        2H2d0         2H2d+1        2H2d+2    
   10    2H1f-3        2H1f-2        2H1f-1        2H1f0         2H1f+1        2H1f+2        2H1f+3        3H1s          3H2s          3H3s      
   11    3H4s          3H1pz         3H1py         3H1px         3H2pz         3H2py         3H2px         3H3pz         3H3py         3H3px     
   12    3H1d-2        3H1d-1        3H1d0         3H1d+1        3H1d+2        3H2d-2        3H2d-1        3H2d0         3H2d+1        3H2d+2    
   13    3H1f-3        3H1f-2        3H1f-1        3H1f0         3H1f+1        3H1f+2        3H1f+3        4H1s          4H2s          4H3s      
   14    4H4s          4H1pz         4H1py         4H1px         4H2pz         4H2py         4H2px         4H3pz         4H3py         4H3px     
   15    4H1d-2        4H1d-1        4H1d0         4H1d+1        4H1d+2        4H2d-2        4H2d-1        4H2d0         4H2d+1        4H2d+2    
   16    4H1f-3        4H1f-2        4H1f-1        4H1f0         4H1f+1        4H1f+2        4H1f+3        5N1s          5N2s          5N3s      
   17    5N4s          5N5s          5N6s          5N7s          5N8s          5N9s          5N10s         5N1pz         5N1py         5N1px     
   18    5N2pz         5N2py         5N2px         5N3pz         5N3py         5N3px         5N4pz         5N4py         5N4px         5N5pz     
   19    5N5py         5N5px         5N6pz         5N6py         5N6px         5N7pz         5N7py         5N7px         5N8pz         5N8py     
   20    5N8px         5N1d-2        5N1d-1        5N1d0         5N1d+1        5N1d+2        5N2d-2        5N2d-1        5N2d0         5N2d+1    
   21    5N2d+2        5N3d-2        5N3d-1        5N3d0         5N3d+1        5N3d+2        5N4d-2        5N4d-1        5N4d0         5N4d+1    
   22    5N4d+2        5N1f-3        5N1f-2        5N1f-1        5N1f0         5N1f+1        5N1f+2        5N1f+3        5N2f-3        5N2f-2    
   23    5N2f-1        5N2f0         5N2f+1        5N2f+2        5N2f+3        5N1g-4        5N1g-3        5N1g-2        5N1g-1        5N1g0     
   24    5N1g+1        5N1g+2        5N1g+3        5N1g+4        6H1s          6H2s          6H3s          6H4s          6H1pz         6H1py     
   25    6H1px         6H2pz         6H2py         6H2px         6H3pz         6H3py         6H3px         6H1d-2        6H1d-1        6H1d0     
   26    6H1d+1        6H1d+2        6H2d-2        6H2d-1        6H2d0         6H2d+1        6H2d+2        6H1f-3        6H1f-2        6H1f-1    
   27    6H1f0         6H1f+1        6H1f+2        6H1f+3        7H1s          7H2s          7H3s          7H4s          7H1pz         7H1py     
   28    7H1px         7H2pz         7H2py         7H2px         7H3pz         7H3py         7H3px         7H1d-2        7H1d-1        7H1d0     
   29    7H1d+1        7H1d+2        7H2d-2        7H2d-1        7H2d0         7H2d+1        7H2d+2        7H1f-3        7H1f-2        7H1f-1    
   30    7H1f0         7H1f+1        7H1f+2        7H1f+3        8H1s          8H2s          8H3s          8H4s          8H1pz         8H1py     
   31    8H1px         8H2pz         8H2py         8H2px         8H3pz         8H3py         8H3px         8H1d-2        8H1d-1        8H1d0     
   32    8H1d+1        8H1d+2        8H2d-2        8H2d-1        8H2d0         8H2d+1        8H2d+2        8H1f-3        8H1f-2        8H1f-1    
   33    8H1f0         8H1f+1        8H1f+2        8H1f+3        9N1s          9N2s          9N3s          9N4s          9N5s          9N6s      
   34    9N7s          9N8s          9N9s          9N10s         9N1pz         9N1py         9N1px         9N2pz         9N2py         9N2px     
   35    9N3pz         9N3py         9N3px         9N4pz         9N4py         9N4px         9N5pz         9N5py         9N5px         9N6pz     
   36    9N6py         9N6px         9N7pz         9N7py         9N7px         9N8pz         9N8py         9N8px         9N1d-2        9N1d-1    
   37    9N1d0         9N1d+1        9N1d+2        9N2d-2        9N2d-1        9N2d0         9N2d+1        9N2d+2        9N3d-2        9N3d-1    
   38    9N3d0         9N3d+1        9N3d+2        9N4d-2        9N4d-1        9N4d0         9N4d+1        9N4d+2        9N1f-3        9N1f-2    
   39    9N1f-1        9N1f0         9N1f+1        9N1f+2        9N1f+3        9N2f-3        9N2f-2        9N2f-1        9N2f0         9N2f+1    
   40    9N2f+2        9N2f+3        9N1g-4        9N1g-3        9N1g-2        9N1g-1        9N1g0         9N1g+1        9N1g+2        9N1g+3    
   41    9N1g+4       10H1s         10H2s         10H3s         10H4s         10H1pz        10H1py        10H1px        10H2pz        10H2py     
   42   10H2px        10H3pz        10H3py        10H3px        10H1d-2       10H1d-1       10H1d0        10H1d+1       10H1d+2       10H2d-2    
   43   10H2d-1       10H2d0        10H2d+1       10H2d+2       10H1f-3       10H1f-2       10H1f-1       10H1f0        10H1f+1       10H1f+2    
   44   10H1f+3       11H1s         11H2s         11H3s         11H4s         11H1pz        11H1py        11H1px        11H2pz        11H2py     
   45   11H2px        11H3pz        11H3py        11H3px        11H1d-2       11H1d-1       11H1d0        11H1d+1       11H1d+2       11H2d-2    
   46   11H2d-1       11H2d0        11H2d+1       11H2d+2       11H1f-3       11H1f-2       11H1f-1       11H1f0        11H1f+1       11H1f+2    
   47   11H1f+3       12H1s         12H2s         12H3s         12H4s         12H1pz        12H1py        12H1px        12H2pz        12H2py     
   48   12H2px        12H3pz        12H3py        12H3px        12H1d-2       12H1d-1       12H1d0        12H1d+1       12H1d+2       12H2d-2    
   49   12H2d-1       12H2d0        12H2d+1       12H2d+2       12H1f-3       12H1f-2       12H1f-1       12H1f0        12H1f+1       12H1f+2    
   50   12H1f+3    
 
 Maximum number of basis functions per shell:   24
 Total number of basis functions:    501
 
 
 Initializing the SAD routines for the initial guess...
 Checking the files required for the initial guess...
 Atomic density files have been found for the atoms with the following serial numbers:
  
 Atomic density files have not been found for the atoms with the following serial numbers:
  1 2 3 4
 Generating SCFDENSITIES.N.def2-svp.0
 Generating SCFDENSITIES.H.def2-svp.0
 CPU time [min]:     0.216                   Wall time [min]:     0.131
 
 Character table for point group C1:
 
          E  
    A     1
 
 Number of basis functions per irrep:
    A      87
 
 
 Calculation of overlap integrals...
 CPU time [min]:     0.221                   Wall time [min]:     0.132
 
 Calculation of the square root of the overlap matrix...
 Minimum eigenvalue of the overlap matrix: 0.237049E-01
 CPU time [min]:     0.234                   Wall time [min]:     0.132
 
 Calculation of kinetic energy integrals...
 CPU time [min]:     0.235                   Wall time [min]:     0.132
 Calculation of dipole moment integrals...
 CPU time [min]:     0.235                   Wall time [min]:     0.132
 Calculation of nuclear attraction integrals...
 CPU time [min]:     0.237                   Wall time [min]:     0.132
 
 Calculation of prescreening integrals...
 CPU time [min]:     0.256                   Wall time [min]:     0.132
 
 Calculation of two-center Coulomb integrals...
   1% done.
  13% done.
  24% done.
  35% done.
  47% done.
  60% done.
  72% done.
  86% done.
  97% done.
 100% done.
 CPU time [min]:     0.268                   Wall time [min]:     0.133
 
 Cholesky decomposition of the two-center matrix...
 Reciprocal of the condition number:  0.111181E-04
 CPU time [min]:     0.293                   Wall time [min]:     0.133
 
 
 Running small-basis SCF...

 ************************ 2026-02-26 22:40:31 *************************
 Executing scf...

 @scfsetup: integrals calculated directly
            mrcc/integ direct run
 @scfsetup: calculating on full matrices
            not using symmetry adapted basis
 @scfsetup: diis switched on
 @scfsetup: number of steps to extrapolate from  10
 @scfsetup: tolerance in energy deviation    0.100000E-07
            tolerance in density deviation    0.100000E-08
 @scfsetup: maximum number of iterations: 200
 @scfsetup: restricted closed shell hf calc
 @scfsetup: starting scf from superposition of atomic densities
 @scfsetup: occupation set:
            from initial orbitals
 @scfsetup: Parameter-set for SCF acceleration: normal
 @scfsetup: diis runs from iteration:   2
 @scfsetup: diis runs to iteration: 200
 @scfsetup: diis runs in every iteration
 @scfsetup: diiswatch is disabled                   
 @scfsetup: diis dtol criteria to switch on:      0.0000E+00
           (or the iteration number below is reached)
 @scfsetup: static damping scheme
            iteration step criteria to turn damping off: 3
 @scfsetup: dynamic level shifting
            tolarance in HOMO-LUMO gap:  0.200
            tolarance in density deviation:     0.0000E+00
            iteration step criteria to turn level shifting off: 8
 Allocation of 46.0 Gbytes of memory...
 ======================================================================
 ITERATION STEP   1
 CPU time [min]:     0.038                   Wall time [min]:     0.009
 

 SCF control                  : initial
 Damping factor/level shift   : 0.000/0.200
 DIIS [start/end/frequency]   :   2 /200 /  1

 Constructing Fock-matrix...
 
 Pipek-Mezey localization...
 Step  Convergence
   1   0.916937918467
   2   0.030837364253
   3   0.000022854327
   4   0.000000374452
   5   0.000000009241
 CPU time [min]:     0.064                   Wall time [min]:     0.009
 
 Constructing local fitting domains...
 Maximum number of atoms in fitting domains:    4
 Average number of atoms in fitting domains:    4.0
 
 First step of Coulomb + first step of exchange...
 Exchange contribution is evaluated for MOs 1 to 5.
   1% done.
  14% done.
  25% done.
  37% done.
  49% done.
  60% done.
  72% done.
  83% done.
 100% done.
 Fitting and assembly step of exchange...
 CPU time [min]:     0.147                   Wall time [min]:     0.010
 
 Second step of Coulomb...
   1% done.
  14% done.
  25% done.
  37% done.
  49% done.
  60% done.
  72% done.
  83% done.
 100% done.
 CPU time [min]:     0.172                   Wall time [min]:     0.011
 
 Gradient norm:      2.3664E+00
 RMS of [F,P]:                                         0.02509469428743
 RMS of difference density:                            0.00907008192482
 Gap [au]:  0.66948060
 ALPHA OCC:   5
 BETA  OCC:   5
 
 ***HARTREE-FOCK ENERGY IN STEP   1 IS        -55.8598424274465941 [AU]
 ======================================================================
 ITERATION STEP   2
 CPU time [min]:     0.184                   Wall time [min]:     0.011
 

 SCF control                  : diis
 Damping factor/level shift   : 0.000/0.000
 DIIS [start/end/frequency]   :   2 /200 /  1

 Constructing Fock-matrix...
 
 Pipek-Mezey localization...
 Step  Convergence
   1   0.020418529895
   2   0.020389637174
   3   0.000003512091
   4   0.000000016398
   5   0.000000000233
 CPU time [min]:     0.207                   Wall time [min]:     0.011
 
 Constructing local fitting domains...
 Maximum number of atoms in fitting domains:    4
 Average number of atoms in fitting domains:    4.0
 
 First step of Coulomb + first step of exchange...
 Exchange contribution is evaluated for MOs 1 to 5.
   1% done.
  14% done.
  25% done.
  37% done.
  49% done.
  60% done.
  72% done.
  83% done.
 100% done.
 Fitting and assembly step of exchange...
 CPU time [min]:     0.280                   Wall time [min]:     0.013
 
 Second step of Coulomb...
   1% done.
  14% done.
  25% done.
  37% done.
  49% done.
  60% done.
  72% done.
  83% done.
 100% done.
 CPU time [min]:     0.304                   Wall time [min]:     0.013
 
 Gradient norm:      3.2120E-01
 DIIS is running in this iteration step.
 RMS of [F,P]:                                         0.00536427283175
 RMS of difference density:                            0.00419762910507
 Gap [au]:  0.46984712
 ALPHA OCC:   5
 BETA  OCC:   5
 
 ***HARTREE-FOCK ENERGY IN STEP   2 IS        -56.1230195738266602 [AU]
 
 Step comparison  Energy Drift [au]  DIIS error drift  Gradient drift
        1            2.6318E-01         1.9730E-02       2.0452E+00
        2            5.6123E+01         1.0000E-09       2.0452E+00
 ======================================================================
 ITERATION STEP   3
 CPU time [min]:     0.320                   Wall time [min]:     0.013
 

 SCF control                  : diis
 Damping factor/level shift   : 0.000/0.000
 DIIS [start/end/frequency]   :   2 /200 /  1

 Constructing Fock-matrix...
 
 Pipek-Mezey localization...
 Step  Convergence
   1   0.020157777415
   2   0.020324065354
   3   0.000002189470
   4   0.000000001445
 CPU time [min]:     0.343                   Wall time [min]:     0.014
 
 Constructing local fitting domains...
 Local fitting domains are unchanged.
 
 First step of Coulomb + first step of exchange...
 Exchange contribution is evaluated for MOs 1 to 5.
   1% done.
  14% done.
  25% done.
  37% done.
  49% done.
  60% done.
  72% done.
  83% done.
 100% done.
 Fitting and assembly step of exchange...
 CPU time [min]:     0.413                   Wall time [min]:     0.015
 
 Second step of Coulomb...
   1% done.
  14% done.
  25% done.
  37% done.
  49% done.
  60% done.
  72% done.
  83% done.
 100% done.
 CPU time [min]:     0.437                   Wall time [min]:     0.015
 
 Gradient norm:      1.2070E-01
 DIIS is running in this iteration step.
 RMS of [F,P]:                                         0.00255212376954
 RMS of difference density:                            0.00127620323849
 Gap [au]:  0.53189240
 ALPHA OCC:   5
 BETA  OCC:   5
 
 ***HARTREE-FOCK ENERGY IN STEP   3 IS        -56.1423007446325073 [AU]
 
 Step comparison  Energy Drift [au]  DIIS error drift  Gradient drift
        2            1.9281E-02         2.8121E-03       2.0050E-01
 ======================================================================
 ITERATION STEP   4
 CPU time [min]:     0.452                   Wall time [min]:     0.015
 

 SCF control                  : diis
 Damping factor/level shift   : 0.000/0.000
 DIIS [start/end/frequency]   :   2 /200 /  1

 Constructing Fock-matrix...
 
 Pipek-Mezey localization...
 Step  Convergence
   1   0.019962723486
   2   0.020304042826
   3   0.000002040493
   4   0.000000000200
 CPU time [min]:     0.475                   Wall time [min]:     0.016
 
 Constructing local fitting domains...
 Local fitting domains are unchanged.
 
 First step of Coulomb + first step of exchange...
 Exchange contribution is evaluated for MOs 1 to 5.
   1% done.
  14% done.
  25% done.
  37% done.
  49% done.
  60% done.
  72% done.
  83% done.
 100% done.
 Fitting and assembly step of exchange...
 CPU time [min]:     0.545                   Wall time [min]:     0.017
 
 Second step of Coulomb...
   1% done.
  14% done.
  25% done.
  37% done.
  49% done.
  60% done.
  72% done.
  83% done.
 100% done.
 CPU time [min]:     0.569                   Wall time [min]:     0.017
 
 Gradient norm:      2.4156E-02
 DIIS is running in this iteration step.
 RMS of [F,P]:                                         0.00031586604238
 RMS of difference density:                            0.00031837658118
 Gap [au]:  0.52417689
 ALPHA OCC:   5
 BETA  OCC:   5
 
 ***HARTREE-FOCK ENERGY IN STEP   4 IS        -56.1475455860230070 [AU]
 
 Step comparison  Energy Drift [au]  DIIS error drift  Gradient drift
        3            5.2448E-03         2.2363E-03       9.6541E-02
 ======================================================================
 ITERATION STEP   5
 CPU time [min]:     0.585                   Wall time [min]:     0.018
 

 SCF control                  : diis
 Damping factor/level shift   : 0.000/0.000
 DIIS [start/end/frequency]   :   2 /200 /  1

 Constructing Fock-matrix...
 
 Pipek-Mezey localization...
 Step  Convergence
   1   0.029926981471
   2   0.030724990636
   3   0.000008120233
   4   0.000000001110
 CPU time [min]:     0.608                   Wall time [min]:     0.018
 
 Constructing local fitting domains...
 Local fitting domains are unchanged.
 
 First step of Coulomb + first step of exchange...
 Exchange contribution is evaluated for MOs 1 to 5.
   1% done.
  14% done.
  25% done.
  37% done.
  49% done.
  60% done.
  72% done.
  83% done.
 100% done.
 Fitting and assembly step of exchange...
 CPU time [min]:     0.678                   Wall time [min]:     0.019
 
 Second step of Coulomb...
   1% done.
  14% done.
  25% done.
  37% done.
  49% done.
  60% done.
  72% done.
  83% done.
 100% done.
 CPU time [min]:     0.702                   Wall time [min]:     0.020
 
 Gradient norm:      2.0152E-03
 DIIS is running in this iteration step.
 RMS of [F,P]:                                         0.00005229080225
 RMS of difference density:                            0.00004373524028
 Gap [au]:  0.52441010
 ALPHA OCC:   5
 BETA  OCC:   5
 
 ***HARTREE-FOCK ENERGY IN STEP   5 IS        -56.1477058640181497 [AU]
 
 Step comparison  Energy Drift [au]  DIIS error drift  Gradient drift
        4            1.6028E-04         2.6358E-04       2.2141E-02
 ======================================================================
 ITERATION STEP   6
 CPU time [min]:     0.717                   Wall time [min]:     0.020
 

 SCF control                  : diis
 Damping factor/level shift   : 0.000/0.000
 DIIS [start/end/frequency]   :   2 /200 /  1

 Constructing Fock-matrix...
 
 Pipek-Mezey localization...
 Step  Convergence
   1   0.046054059163
   2   0.045683695410
   3   0.000038699739
   4   0.000000129290
   5   0.000000001009
   6   0.000000000007
   7   0.000000000000
 CPU time [min]:     0.740                   Wall time [min]:     0.020
 
 Constructing local fitting domains...
 Local fitting domains are unchanged.
 
 First step of Coulomb + first step of exchange...
 Exchange contribution is evaluated for MOs 1 to 5.
   1% done.
  14% done.
  25% done.
  37% done.
  49% done.
  60% done.
  72% done.
  83% done.
 100% done.
 Fitting and assembly step of exchange...
 CPU time [min]:     0.811                   Wall time [min]:     0.021
 
 Second step of Coulomb...
   1% done.
  14% done.
  25% done.
  37% done.
  49% done.
  60% done.
  72% done.
  83% done.
 100% done.
 CPU time [min]:     0.835                   Wall time [min]:     0.022
 
 Gradient norm:      3.2193E-04
 DIIS is running in this iteration step.
 RMS of [F,P]:                                         0.00000545724444
 RMS of difference density:                            0.00000404531806
 Gap [au]:  0.52446794
 ALPHA OCC:   5
 BETA  OCC:   5
 
 ***HARTREE-FOCK ENERGY IN STEP   6 IS        -56.1477091297953308 [AU]
 
 Step comparison  Energy Drift [au]  DIIS error drift  Gradient drift
        5            3.2658E-06         4.6834E-05       1.6933E-03
 ======================================================================
 ITERATION STEP   7
 CPU time [min]:     0.852                   Wall time [min]:     0.022
 

 SCF control                  : diis
 Damping factor/level shift   : 0.000/0.000
 DIIS [start/end/frequency]   :   2 /200 /  1

 Constructing Fock-matrix...
 
 Pipek-Mezey localization...
 Step  Convergence
   1   0.046039466583
   2   0.045607837500
   3   0.000054857793
   4   0.000000334668
   5   0.000000000830
   6   0.000000000002
   7   0.000000000000
 CPU time [min]:     0.875                   Wall time [min]:     0.023
 
 Constructing local fitting domains...
 Local fitting domains are unchanged.
 
 First step of Coulomb + first step of exchange...
 Exchange contribution is evaluated for MOs 1 to 5.
   1% done.
  14% done.
  25% done.
  37% done.
  49% done.
  60% done.
  72% done.
  83% done.
 100% done.
 Fitting and assembly step of exchange...
 CPU time [min]:     0.945                   Wall time [min]:     0.024
 
 Second step of Coulomb...
   1% done.
  14% done.
  25% done.
  37% done.
  49% done.
  60% done.
  72% done.
  83% done.
 100% done.
 CPU time [min]:     0.970                   Wall time [min]:     0.024
 
 Gradient norm:      7.7207E-05
 DIIS is running in this iteration step.
 RMS of [F,P]:                                         0.00000088561175
 RMS of difference density:                            0.00000095376968
 Gap [au]:  0.52445798
 ALPHA OCC:   5
 BETA  OCC:   5
 
 ***HARTREE-FOCK ENERGY IN STEP   7 IS        -56.1477091652393554 [AU]
 
 Step comparison  Energy Drift [au]  DIIS error drift  Gradient drift
        6            3.5444E-08         4.5716E-06       2.4472E-04
 ======================================================================
 ITERATION STEP   8
 CPU time [min]:     0.985                   Wall time [min]:     0.024
 

 SCF control                  : diis
 Damping factor/level shift   : 0.000/0.000
 DIIS [start/end/frequency]   :   2 /200 /  1

 Constructing Fock-matrix...
 
 Pipek-Mezey localization...
 Step  Convergence
   1   0.039895708814
   2   0.041324511390
   3   0.000071151628
   4   0.000000419466
   5   0.000000002150
   6   0.000000000009
   7   0.000000000000
 CPU time [min]:     1.008                   Wall time [min]:     0.025
 
 Constructing local fitting domains...
 Local fitting domains are unchanged.
 
 First step of Coulomb + first step of exchange...
 Exchange contribution is evaluated for MOs 1 to 5.
   1% done.
  14% done.
  25% done.
  37% done.
  49% done.
  60% done.
  72% done.
  83% done.
 100% done.
 Fitting and assembly step of exchange...
 CPU time [min]:     1.079                   Wall time [min]:     0.026
 
 Second step of Coulomb...
   1% done.
  14% done.
  25% done.
  37% done.
  49% done.
  60% done.
  72% done.
  83% done.
 100% done.
 CPU time [min]:     1.103                   Wall time [min]:     0.026
 
 Gradient norm:      1.0797E-05
 DIIS is running in this iteration step.
 RMS of [F,P]:                                         0.00000018196651
 RMS of difference density:                            0.00000032159677
 Gap [au]:  0.52445370
 ALPHA OCC:   5
 BETA  OCC:   5
 
 ***HARTREE-FOCK ENERGY IN STEP   8 IS        -56.1477091668901593 [AU]
 
 Step comparison  Energy Drift [au]  DIIS error drift  Gradient drift
        7            1.6508E-09         7.0365E-07       6.6411E-05
 ======================================================================
 ITERATION STEP   9
 CPU time [min]:     1.122                   Wall time [min]:     0.027
 

 SCF control                  : diis
 Damping factor/level shift   : 0.000/0.000
 DIIS [start/end/frequency]   :   2 /200 /  1

 Constructing Fock-matrix...
 
 Pipek-Mezey localization...
 Step  Convergence
   1   0.046180885379
   2   0.045783384494
   3   0.000020282372
   4   0.000000002166
   5   0.000000000001
   6   0.000000000000
 CPU time [min]:     1.145                   Wall time [min]:     0.027
 
 Constructing local fitting domains...
 Local fitting domains are unchanged.
 
 First step of Coulomb + first step of exchange...
 Exchange contribution is evaluated for MOs 1 to 5.
   1% done.
  14% done.
  25% done.
  37% done.
  49% done.
  60% done.
  72% done.
  83% done.
 100% done.
 Fitting and assembly step of exchange...
 CPU time [min]:     1.215                   Wall time [min]:     0.028
 
 Second step of Coulomb...
   1% done.
  14% done.
  25% done.
  37% done.
  49% done.
  60% done.
  72% done.
  83% done.
 100% done.
 CPU time [min]:     1.239                   Wall time [min]:     0.029
 
 Gradient norm:      3.1478E-06
 DIIS is running in this iteration step.
 RMS of [F,P]:                                         0.00000003226683
 RMS of difference density:                            0.00000009672194
 Gap [au]:  0.52445332
 ALPHA OCC:   5
 BETA  OCC:   5
 
 ***HARTREE-FOCK ENERGY IN STEP   9 IS        -56.1477091669927972 [AU]
 
 Step comparison  Energy Drift [au]  DIIS error drift  Gradient drift
        8            1.0264E-10         1.4970E-07       7.6491E-06
 ======================================================================
 ITERATION STEP  10
 CPU time [min]:     1.256                   Wall time [min]:     0.029
 

 SCF control                  : diis
 Damping factor/level shift   : 0.000/0.000
 DIIS [start/end/frequency]   :   2 /200 /  1

 Constructing Fock-matrix...
 
 Pipek-Mezey localization...
 Step  Convergence
   1   0.040011793533
   2   0.041193928549
   3   0.000042811408
   4   0.000000160420
   5   0.000000001191
   6   0.000000000006
   7   0.000000000000
 CPU time [min]:     1.279                   Wall time [min]:     0.029
 
 Constructing local fitting domains...
 Local fitting domains are unchanged.
 
 First step of Coulomb + first step of exchange...
 Exchange contribution is evaluated for MOs 1 to 5.
   1% done.
  14% done.
  25% done.
  37% done.
  49% done.
  60% done.
  72% done.
  83% done.
 100% done.
 Fitting and assembly step of exchange...
 CPU time [min]:     1.349                   Wall time [min]:     0.030
 
 Second step of Coulomb...
   1% done.
  14% done.
  25% done.
  37% done.
  49% done.
  60% done.
  72% done.
  83% done.
 100% done.
 CPU time [min]:     1.373                   Wall time [min]:     0.031
 
 Gradient norm:      6.3562E-07
 DIIS is running in this iteration step.
 RMS of [F,P]:                                         0.00000000728720
 RMS of difference density:                            0.00000002397805
 Gap [au]:  0.52445334
 ALPHA OCC:   5
 BETA  OCC:   5
 
 ***HARTREE-FOCK ENERGY IN STEP  10 IS        -56.1477091669976716 [AU]
 
 Step comparison  Energy Drift [au]  DIIS error drift  Gradient drift
        9            4.8743E-12         2.4980E-08       2.5122E-06
 ======================================================================
 ITERATION STEP  11
 CPU time [min]:     1.389                   Wall time [min]:     0.031
 

 SCF control                  : diis
 Damping factor/level shift   : 0.000/0.000
 DIIS [start/end/frequency]   :   2 /200 /  1

 Constructing Fock-matrix...
 
 Pipek-Mezey localization...
 Step  Convergence
   1   0.046332809334
   2   0.045768371431
   3   0.000016277660
   4   0.000000002080
   5   0.000000000010
   6   0.000000000000
 CPU time [min]:     1.412                   Wall time [min]:     0.032
 
 Constructing local fitting domains...
 Local fitting domains are unchanged.
 
 First step of Coulomb + first step of exchange...
 Exchange contribution is evaluated for MOs 1 to 5.
   1% done.
  14% done.
  25% done.
  37% done.
  49% done.
  60% done.
  72% done.
  83% done.
 100% done.
 Fitting and assembly step of exchange...
 CPU time [min]:     1.481                   Wall time [min]:     0.033
 
 Second step of Coulomb...
   1% done.
  14% done.
  25% done.
  37% done.
  49% done.
  60% done.
  72% done.
  83% done.
 100% done.
 CPU time [min]:     1.505                   Wall time [min]:     0.033
 
 Gradient norm:      4.4788E-08
 DIIS is running in this iteration step.
 RMS of [F,P]:                                         0.00000000066114
 RMS of difference density:                            0.00000000130272
 Gap [au]:  0.52445336
 ALPHA OCC:   5
 BETA  OCC:   5
 
 ***HARTREE-FOCK ENERGY IN STEP  11 IS        -56.1477091669978847 [AU]
 
 Step comparison  Energy Drift [au]  DIIS error drift  Gradient drift
       10            2.1316E-13         6.6261E-09       5.9083E-07
 ======================================================================
 ITERATION STEP  12
 CPU time [min]:     1.521                   Wall time [min]:     0.033
 

 SCF control                  : diis
 Damping factor/level shift   : 0.000/0.000
 DIIS [start/end/frequency]   :   2 /200 /  1

 Constructing Fock-matrix...
 
 Pipek-Mezey localization...
 Step  Convergence
   1   0.046332818753
   2   0.047973657492
   3   0.000091165744
   4   0.000000370313
   5   0.000000003175
   6   0.000000000023
   7   0.000000000000
 CPU time [min]:     1.544                   Wall time [min]:     0.034
 
 Constructing local fitting domains...
 Local fitting domains are unchanged.
 
 First step of Coulomb + first step of exchange...
 Exchange contribution is evaluated for MOs 1 to 5.
   1% done.
  14% done.
  25% done.
  37% done.
  49% done.
  60% done.
  72% done.
  83% done.
 100% done.
 Fitting and assembly step of exchange...
 CPU time [min]:     1.614                   Wall time [min]:     0.035
 
 Second step of Coulomb...
   1% done.
  14% done.
  25% done.
  37% done.
  49% done.
  60% done.
  72% done.
  83% done.
 100% done.
 CPU time [min]:     1.638                   Wall time [min]:     0.035
 
 Gradient norm:      3.1992E-09
 DIIS is running in this iteration step.
 RMS of [F,P]:                                         0.00000000005501
 RMS of difference density:                            0.00000000007744
 Gap [au]:  0.52445336
 ALPHA OCC:   5
 BETA  OCC:   5
 
 ***HARTREE-FOCK ENERGY IN STEP  12 IS        -56.1477091669978066 [AU]
 
 Step comparison  Energy Drift [au]  DIIS error drift  Gradient drift
       11           -7.8160E-14         6.0613E-10       4.1588E-08
 Warning! The energy goes uphill (with respect to previous step).
 
 The SCF iteration has converged.
 An extra iteration will be performed to calculate accurate SCF energy.
 
 ======================================================================
 ITERATION STEP  13
 CPU time [min]:     1.656                   Wall time [min]:     0.036
 

 SCF control                  : diis
 Damping factor/level shift   : 0.000/0.000
 DIIS [start/end/frequency]   :   2 /200 /  1

 Constructing Fock-matrix...
 
 Pipek-Mezey localization...
 Step  Convergence
   1   0.046037830412
   2   0.047960183946
   3   0.000092948303
   4   0.000000424163
   5   0.000000001222
   6   0.000000000010
   7   0.000000000000
 CPU time [min]:     1.679                   Wall time [min]:     0.036
 
 Constructing local fitting domains...
 Maximum number of atoms in fitting domains:    9
 Average number of atoms in fitting domains:    8.4
 
 First step of Coulomb + first step of exchange...
 Exchange contribution is evaluated for MOs 1 to 5.
   1% done.
  14% done.
  25% done.
  37% done.
  49% done.
  60% done.
  72% done.
  83% done.
 100% done.
 Fitting and assembly step of exchange...
 CPU time [min]:     1.770                   Wall time [min]:     0.037
 
 Second step of Coulomb...
   1% done.
  14% done.
  25% done.
  37% done.
  49% done.
  60% done.
  72% done.
  83% done.
 100% done.
 CPU time [min]:     1.794                   Wall time [min]:     0.038
 
 Gradient norm:      3.7264E-07
 RMS of [F,P]:                                         0.00000000573655
 RMS of difference density:                            0.00000000767025
 Gap [au]:  0.52445324
 ALPHA OCC:   5
 BETA  OCC:   5
 
 ***HARTREE-FOCK ENERGY IN STEP  13 IS        -56.1477092018369248 [AU]
 
 Step comparison  Energy Drift [au]  DIIS error drift  Gradient drift
       12            3.4839E-08        -5.6815E-09      -3.6944E-07
 Warning! The DIIS error goes uphill (with respect to previous step).
 Warning! The DIIS error goes uphill (with respect to step  12 ).
 Warning! The gradient goes uphill (with respect to previous step).
 Warning! The gradient goes uphill (with respect to step  12 ).
 ======================================================================
 
 SUCCESS...
 THE SCF ITERATION HAS CONVERGED!
 
                   A   
 FINAL ALPHA OCC:   5
 FINAL BETA  OCC:   5
 
 ***FINAL HARTREE-FOCK ENERGY:        -56.1477092018369248 [AU]
 
 Orbital energies [au]:
      Irrep         Alpha          Beta
    1   A        -15.539168     -15.539168
    2   A         -1.111218      -1.111218
    3   A         -0.615138      -0.615138
    4   A         -0.615106      -0.615106
    5   A         -0.418563      -0.418563
 
    6   A          0.105890       0.105890
    7   A          0.148139       0.148139
    8   A          0.175596       0.175596
    9   A          0.242395       0.242395
   10   A          0.248925       0.248925
   11   A          0.257907       0.257907
   12   A          0.268938       0.268938
   13   A          0.269110       0.269110
   14   A          0.300295       0.300295
   15   A          0.437939       0.437939
   16   A          0.495577       0.495577
   17   A          0.594583       0.594583
   18   A          0.662257       0.662257
   19   A          0.712105       0.712105
   20   A          0.723010       0.723010
   21   A          0.733269       0.733269
   22   A          0.733901       0.733901
   23   A          0.736066       0.736066
   24   A          0.842979       0.842979
   25   A          0.882404       0.882404
   26   A          0.990044       0.990044
   27   A          1.093600       1.093600
   28   A          1.093609       1.093609
   29   A          1.140266       1.140266
   30   A          1.459618       1.459618
   31   A          1.459632       1.459632
   32   A          1.559795       1.559795
   33   A          1.571724       1.571724
   34   A          1.577785       1.577785
   35   A          1.614276       1.614276
   36   A          1.619548       1.619548
   37   A          1.644263       1.644263
   38   A          1.751982       1.751982
   39   A          1.832469       1.832469
   40   A          1.866467       1.866467
   41   A          1.957489       1.957489
   42   A          1.964309       1.964309
   43   A          1.966288       1.966288
   44   A          1.978218       1.978218
   45   A          2.029855       2.029855
   46   A          2.074285       2.074285
   47   A          2.074299       2.074299
   48   A          2.274492       2.274492
   49   A          2.280244       2.280244
   50   A          2.418482       2.418482
   51   A          2.418602       2.418602
   52   A          2.425243       2.425243
   53   A          2.442782       2.442782
   54   A          2.455587       2.455587
   55   A          2.472275       2.472275
   56   A          2.481627       2.481627
   57   A          2.491003       2.491003
   58   A          2.492910       2.492910
   59   A          2.508345       2.508345
   60   A          2.520186       2.520186
   61   A          2.615054       2.615054
   62   A          2.745601       2.745601
   63   A          3.050553       3.050553
   64   A          3.122759       3.122759
   65   A          3.155559       3.155559
   66   A          3.155578       3.155578
   67   A          3.258816       3.258816
   68   A          3.692144       3.692144
   69   A          3.692188       3.692188
   70   A          4.012157       4.012157
   71   A          4.023658       4.023658
   72   A          4.031625       4.031625
   73   A          4.047141       4.047141
   74   A          4.060336       4.060336
   75   A          4.084150       4.084150
   76   A          4.160237       4.160237
   77   A          4.161220       4.161220
   78   A          4.165126       4.165126
   79   A          4.188796       4.188796
   80   A          4.897810       4.897810
   81   A          4.947504       4.947504
   82   A          6.037129       6.037129
   83   A          6.050899       6.050899
   84   A          6.056121       6.056121
   85   A          6.083740       6.083740
   86   A         26.585998      26.585998
   87   A         26.674006      26.674006
 
 RETURNING FROM SCF ALGORITHM
 ======================================================================

 ************************ 2026-02-26 22:40:34 *************************
 Executing integ...

 Allocation of 46.0 Gbytes of memory...
 
 
 Number of atoms:                 12
 Charge:                           0
 Number of electrons:             10
 Number of core electrons:         2
 Spin multiplicity:                1
 
                 Cartesian coordinates [bohr]      Atomic mass [AMU]  Z
   1  N     7.72105127   16.51701190    2.87336624    14.003074       7
   2  H     7.05646455   15.54933707    1.32879953     1.007825       1
   3  H     8.68882825   18.06135713    2.20894169     1.007825       1
   4  H     6.17659278   17.18151205    3.84109679     1.007825       1
   5  N    12.56867272    7.72109067    6.82187243     0.000000       0
   6  H    13.53645296    6.17673805    7.48629888     0.000000       0
   7  H    11.02421872    7.05658759    5.85414160     0.000000       0
   8  H    11.90408933    8.68876012    8.36643752     0.000000       0
   9  N    16.51706566   12.56870435    7.72099687     0.000000       0
  10  H    18.06149148   11.90420748    8.68871146     0.000000       0
  11  H    17.18163838   13.53638789    6.17641118     0.000000       0
  12  H    15.54925792   11.02435588    7.05654762     0.000000       0
 
 This molecule is an asymmetric top.
 
 Point group: C1  
 Computational point group: C1  
 
 Cartesian coordinates in standard orientation [bohr]
   1  N     1.62307854   -0.00057993    0.01960877
   2  H     2.11514296    1.34582457   -1.28761115
   3  H     2.22821745   -1.71179079   -0.66494857
   4  H     2.64159943    0.36501466    1.62969283
   5  N    -8.71204464    3.10395095   -0.05443198
   6  H   -10.59117721    3.57795115   -0.13970039
   7  H    -7.69743785    4.71280404   -0.43596870
   8  H    -8.32924886    2.60716166    1.78143412
   9  N    -8.67974362   -3.21021456    0.11248271
  10  H   -10.52037478   -3.80969645    0.23888341
  11  H    -7.85959056   -4.18328126   -1.35186132
  12  H    -8.72038843   -1.33838227   -0.39520689
 
 Nuclear repulsion energy [au]:         11.785807877699
 
 
 Basis set information:
 
 Maximum angular momentum: g
 Maximum number of contracted Gaussians:   11
 Maximum number of primitive Gaussians:    14
 Spherical harmonic GTOs are used.
 
 
 Conventional basis set:
 
   1  N  aug-cc-pvtz [ 11s 6p 3d 2f | 5s 4p 3d 2f ]
   2  H  aug-cc-pvtz [ 6s 3p 2d | 4s 3p 2d ]
   3  H  aug-cc-pvtz [ 6s 3p 2d | 4s 3p 2d ]
   4  H  aug-cc-pvtz [ 6s 3p 2d | 4s 3p 2d ]
   5  N  aug-cc-pvtz [ 11s 6p 3d 2f | 5s 4p 3d 2f ]
   6  H  aug-cc-pvtz [ 6s 3p 2d | 4s 3p 2d ]
   7  H  aug-cc-pvtz [ 6s 3p 2d | 4s 3p 2d ]
   8  H  aug-cc-pvtz [ 6s 3p 2d | 4s 3p 2d ]
   9  N  aug-cc-pvtz [ 11s 6p 3d 2f | 5s 4p 3d 2f ]
  10  H  aug-cc-pvtz [ 6s 3p 2d | 4s 3p 2d ]
  11  H  aug-cc-pvtz [ 6s 3p 2d | 4s 3p 2d ]
  12  H  aug-cc-pvtz [ 6s 3p 2d | 4s 3p 2d ]
 
 Basis functions:
            1             2             3             4             5             6             7             8             9            10
    0    1N1s          1N2s          1N3s          1N4s          1N5s          1N1pz         1N1py         1N1px         1N2pz         1N2py     
    1    1N2px         1N3pz         1N3py         1N3px         1N4pz         1N4py         1N4px         1N1d-2        1N1d-1        1N1d0     
    2    1N1d+1        1N1d+2        1N2d-2        1N2d-1        1N2d0         1N2d+1        1N2d+2        1N3d-2        1N3d-1        1N3d0     
    3    1N3d+1        1N3d+2        1N1f-3        1N1f-2        1N1f-1        1N1f0         1N1f+1        1N1f+2        1N1f+3        1N2f-3    
    4    1N2f-2        1N2f-1        1N2f0         1N2f+1        1N2f+2        1N2f+3        2H1s          2H2s          2H3s          2H4s      
    5    2H1pz         2H1py         2H1px         2H2pz         2H2py         2H2px         2H3pz         2H3py         2H3px         2H1d-2    
    6    2H1d-1        2H1d0         2H1d+1        2H1d+2        2H2d-2        2H2d-1        2H2d0         2H2d+1        2H2d+2        3H1s      
    7    3H2s          3H3s          3H4s          3H1pz         3H1py         3H1px         3H2pz         3H2py         3H2px         3H3pz     
    8    3H3py         3H3px         3H1d-2        3H1d-1        3H1d0         3H1d+1        3H1d+2        3H2d-2        3H2d-1        3H2d0     
    9    3H2d+1        3H2d+2        4H1s          4H2s          4H3s          4H4s          4H1pz         4H1py         4H1px         4H2pz     
   10    4H2py         4H2px         4H3pz         4H3py         4H3px         4H1d-2        4H1d-1        4H1d0         4H1d+1        4H1d+2    
   11    4H2d-2        4H2d-1        4H2d0         4H2d+1        4H2d+2        5N1s          5N2s          5N3s          5N4s          5N5s      
   12    5N1pz         5N1py         5N1px         5N2pz         5N2py         5N2px         5N3pz         5N3py         5N3px         5N4pz     
   13    5N4py         5N4px         5N1d-2        5N1d-1        5N1d0         5N1d+1        5N1d+2        5N2d-2        5N2d-1        5N2d0     
   14    5N2d+1        5N2d+2        5N3d-2        5N3d-1        5N3d0         5N3d+1        5N3d+2        5N1f-3        5N1f-2        5N1f-1    
   15    5N1f0         5N1f+1        5N1f+2        5N1f+3        5N2f-3        5N2f-2        5N2f-1        5N2f0         5N2f+1        5N2f+2    
   16    5N2f+3        6H1s          6H2s          6H3s          6H4s          6H1pz         6H1py         6H1px         6H2pz         6H2py     
   17    6H2px         6H3pz         6H3py         6H3px         6H1d-2        6H1d-1        6H1d0         6H1d+1        6H1d+2        6H2d-2    
   18    6H2d-1        6H2d0         6H2d+1        6H2d+2        7H1s          7H2s          7H3s          7H4s          7H1pz         7H1py     
   19    7H1px         7H2pz         7H2py         7H2px         7H3pz         7H3py         7H3px         7H1d-2        7H1d-1        7H1d0     
   20    7H1d+1        7H1d+2        7H2d-2        7H2d-1        7H2d0         7H2d+1        7H2d+2        8H1s          8H2s          8H3s      
   21    8H4s          8H1pz         8H1py         8H1px         8H2pz         8H2py         8H2px         8H3pz         8H3py         8H3px     
   22    8H1d-2        8H1d-1        8H1d0         8H1d+1        8H1d+2        8H2d-2        8H2d-1        8H2d0         8H2d+1        8H2d+2    
   23    9N1s          9N2s          9N3s          9N4s          9N5s          9N1pz         9N1py         9N1px         9N2pz         9N2py     
   24    9N2px         9N3pz         9N3py         9N3px         9N4pz         9N4py         9N4px         9N1d-2        9N1d-1        9N1d0     
   25    9N1d+1        9N1d+2        9N2d-2        9N2d-1        9N2d0         9N2d+1        9N2d+2        9N3d-2        9N3d-1        9N3d0     
   26    9N3d+1        9N3d+2        9N1f-3        9N1f-2        9N1f-1        9N1f0         9N1f+1        9N1f+2        9N1f+3        9N2f-3    
   27    9N2f-2        9N2f-1        9N2f0         9N2f+1        9N2f+2        9N2f+3       10H1s         10H2s         10H3s         10H4s      
   28   10H1pz        10H1py        10H1px        10H2pz        10H2py        10H2px        10H3pz        10H3py        10H3px        10H1d-2    
   29   10H1d-1       10H1d0        10H1d+1       10H1d+2       10H2d-2       10H2d-1       10H2d0        10H2d+1       10H2d+2       11H1s      
   30   11H2s         11H3s         11H4s         11H1pz        11H1py        11H1px        11H2pz        11H2py        11H2px        11H3pz     
   31   11H3py        11H3px        11H1d-2       11H1d-1       11H1d0        11H1d+1       11H1d+2       11H2d-2       11H2d-1       11H2d0     
   32   11H2d+1       11H2d+2       12H1s         12H2s         12H3s         12H4s         12H1pz        12H1py        12H1px        12H2pz     
   33   12H2py        12H2px        12H3pz        12H3py        12H3px        12H1d-2       12H1d-1       12H1d0        12H1d+1       12H1d+2    
   34   12H2d-2       12H2d-1       12H2d0        12H2d+1       12H2d+2    
 
 Maximum number of basis functions per shell:   15
 Total number of basis functions:    345
 
 
 Fitting basis set for the SCF calculation:
 
   1  N  aug-cc-pvtz-ri-jk [ 11s 8p 6d 3f 2g | 11s 8p 6d 3f 2g ]
   2  H  aug-cc-pvtz-ri-jk [ 5s 4p 3d 2f | 5s 4p 3d 2f ]
   3  H  aug-cc-pvtz-ri-jk [ 5s 4p 3d 2f | 5s 4p 3d 2f ]
   4  H  aug-cc-pvtz-ri-jk [ 5s 4p 3d 2f | 5s 4p 3d 2f ]
   5  N  aug-cc-pvtz-ri-jk [ 11s 8p 6d 3f 2g | 11s 8p 6d 3f 2g ]
   6  H  aug-cc-pvtz-ri-jk [ 5s 4p 3d 2f | 5s 4p 3d 2f ]
   7  H  aug-cc-pvtz-ri-jk [ 5s 4p 3d 2f | 5s 4p 3d 2f ]
   8  H  aug-cc-pvtz-ri-jk [ 5s 4p 3d 2f | 5s 4p 3d 2f ]
   9  N  aug-cc-pvtz-ri-jk [ 11s 8p 6d 3f 2g | 11s 8p 6d 3f 2g ]
  10  H  aug-cc-pvtz-ri-jk [ 5s 4p 3d 2f | 5s 4p 3d 2f ]
  11  H  aug-cc-pvtz-ri-jk [ 5s 4p 3d 2f | 5s 4p 3d 2f ]
  12  H  aug-cc-pvtz-ri-jk [ 5s 4p 3d 2f | 5s 4p 3d 2f ]
 
 Basis functions:
            1             2             3             4             5             6             7             8             9            10
    0    1N1s          1N2s          1N3s          1N4s          1N5s          1N6s          1N7s          1N8s          1N9s          1N10s     
    1    1N11s         1N1pz         1N1py         1N1px         1N2pz         1N2py         1N2px         1N3pz         1N3py         1N3px     
    2    1N4pz         1N4py         1N4px         1N5pz         1N5py         1N5px         1N6pz         1N6py         1N6px         1N7pz     
    3    1N7py         1N7px         1N8pz         1N8py         1N8px         1N1d-2        1N1d-1        1N1d0         1N1d+1        1N1d+2    
    4    1N2d-2        1N2d-1        1N2d0         1N2d+1        1N2d+2        1N3d-2        1N3d-1        1N3d0         1N3d+1        1N3d+2    
    5    1N4d-2        1N4d-1        1N4d0         1N4d+1        1N4d+2        1N5d-2        1N5d-1        1N5d0         1N5d+1        1N5d+2    
    6    1N6d-2        1N6d-1        1N6d0         1N6d+1        1N6d+2        1N1f-3        1N1f-2        1N1f-1        1N1f0         1N1f+1    
    7    1N1f+2        1N1f+3        1N2f-3        1N2f-2        1N2f-1        1N2f0         1N2f+1        1N2f+2        1N2f+3        1N3f-3    
    8    1N3f-2        1N3f-1        1N3f0         1N3f+1        1N3f+2        1N3f+3        1N1g-4        1N1g-3        1N1g-2        1N1g-1    
    9    1N1g0         1N1g+1        1N1g+2        1N1g+3        1N1g+4        1N2g-4        1N2g-3        1N2g-2        1N2g-1        1N2g0     
   10    1N2g+1        1N2g+2        1N2g+3        1N2g+4        2H1s          2H2s          2H3s          2H4s          2H5s          2H1pz     
   11    2H1py         2H1px         2H2pz         2H2py         2H2px         2H3pz         2H3py         2H3px         2H4pz         2H4py     
   12    2H4px         2H1d-2        2H1d-1        2H1d0         2H1d+1        2H1d+2        2H2d-2        2H2d-1        2H2d0         2H2d+1    
   13    2H2d+2        2H3d-2        2H3d-1        2H3d0         2H3d+1        2H3d+2        2H1f-3        2H1f-2        2H1f-1        2H1f0     
   14    2H1f+1        2H1f+2        2H1f+3        2H2f-3        2H2f-2        2H2f-1        2H2f0         2H2f+1        2H2f+2        2H2f+3    
   15    3H1s          3H2s          3H3s          3H4s          3H5s          3H1pz         3H1py         3H1px         3H2pz         3H2py     
   16    3H2px         3H3pz         3H3py         3H3px         3H4pz         3H4py         3H4px         3H1d-2        3H1d-1        3H1d0     
   17    3H1d+1        3H1d+2        3H2d-2        3H2d-1        3H2d0         3H2d+1        3H2d+2        3H3d-2        3H3d-1        3H3d0     
   18    3H3d+1        3H3d+2        3H1f-3        3H1f-2        3H1f-1        3H1f0         3H1f+1        3H1f+2        3H1f+3        3H2f-3    
   19    3H2f-2        3H2f-1        3H2f0         3H2f+1        3H2f+2        3H2f+3        4H1s          4H2s          4H3s          4H4s      
   20    4H5s          4H1pz         4H1py         4H1px         4H2pz         4H2py         4H2px         4H3pz         4H3py         4H3px     
   21    4H4pz         4H4py         4H4px         4H1d-2        4H1d-1        4H1d0         4H1d+1        4H1d+2        4H2d-2        4H2d-1    
   22    4H2d0         4H2d+1        4H2d+2        4H3d-2        4H3d-1        4H3d0         4H3d+1        4H3d+2        4H1f-3        4H1f-2    
   23    4H1f-1        4H1f0         4H1f+1        4H1f+2        4H1f+3        4H2f-3        4H2f-2        4H2f-1        4H2f0         4H2f+1    
   24    4H2f+2        4H2f+3        5N1s          5N2s          5N3s          5N4s          5N5s          5N6s          5N7s          5N8s      
   25    5N9s          5N10s         5N11s         5N1pz         5N1py         5N1px         5N2pz         5N2py         5N2px         5N3pz     
   26    5N3py         5N3px         5N4pz         5N4py         5N4px         5N5pz         5N5py         5N5px         5N6pz         5N6py     
   27    5N6px         5N7pz         5N7py         5N7px         5N8pz         5N8py         5N8px         5N1d-2        5N1d-1        5N1d0     
   28    5N1d+1        5N1d+2        5N2d-2        5N2d-1        5N2d0         5N2d+1        5N2d+2        5N3d-2        5N3d-1        5N3d0     
   29    5N3d+1        5N3d+2        5N4d-2        5N4d-1        5N4d0         5N4d+1        5N4d+2        5N5d-2        5N5d-1        5N5d0     
   30    5N5d+1        5N5d+2        5N6d-2        5N6d-1        5N6d0         5N6d+1        5N6d+2        5N1f-3        5N1f-2        5N1f-1    
   31    5N1f0         5N1f+1        5N1f+2        5N1f+3        5N2f-3        5N2f-2        5N2f-1        5N2f0         5N2f+1        5N2f+2    
   32    5N2f+3        5N3f-3        5N3f-2        5N3f-1        5N3f0         5N3f+1        5N3f+2        5N3f+3        5N1g-4        5N1g-3    
   33    5N1g-2        5N1g-1        5N1g0         5N1g+1        5N1g+2        5N1g+3        5N1g+4        5N2g-4        5N2g-3        5N2g-2    
   34    5N2g-1        5N2g0         5N2g+1        5N2g+2        5N2g+3        5N2g+4        6H1s          6H2s          6H3s          6H4s      
   35    6H5s          6H1pz         6H1py         6H1px         6H2pz         6H2py         6H2px         6H3pz         6H3py         6H3px     
   36    6H4pz         6H4py         6H4px         6H1d-2        6H1d-1        6H1d0         6H1d+1        6H1d+2        6H2d-2        6H2d-1    
   37    6H2d0         6H2d+1        6H2d+2        6H3d-2        6H3d-1        6H3d0         6H3d+1        6H3d+2        6H1f-3        6H1f-2    
   38    6H1f-1        6H1f0         6H1f+1        6H1f+2        6H1f+3        6H2f-3        6H2f-2        6H2f-1        6H2f0         6H2f+1    
   39    6H2f+2        6H2f+3        7H1s          7H2s          7H3s          7H4s          7H5s          7H1pz         7H1py         7H1px     
   40    7H2pz         7H2py         7H2px         7H3pz         7H3py         7H3px         7H4pz         7H4py         7H4px         7H1d-2    
   41    7H1d-1        7H1d0         7H1d+1        7H1d+2        7H2d-2        7H2d-1        7H2d0         7H2d+1        7H2d+2        7H3d-2    
   42    7H3d-1        7H3d0         7H3d+1        7H3d+2        7H1f-3        7H1f-2        7H1f-1        7H1f0         7H1f+1        7H1f+2    
   43    7H1f+3        7H2f-3        7H2f-2        7H2f-1        7H2f0         7H2f+1        7H2f+2        7H2f+3        8H1s          8H2s      
   44    8H3s          8H4s          8H5s          8H1pz         8H1py         8H1px         8H2pz         8H2py         8H2px         8H3pz     
   45    8H3py         8H3px         8H4pz         8H4py         8H4px         8H1d-2        8H1d-1        8H1d0         8H1d+1        8H1d+2    
   46    8H2d-2        8H2d-1        8H2d0         8H2d+1        8H2d+2        8H3d-2        8H3d-1        8H3d0         8H3d+1        8H3d+2    
   47    8H1f-3        8H1f-2        8H1f-1        8H1f0         8H1f+1        8H1f+2        8H1f+3        8H2f-3        8H2f-2        8H2f-1    
   48    8H2f0         8H2f+1        8H2f+2        8H2f+3        9N1s          9N2s          9N3s          9N4s          9N5s          9N6s      
   49    9N7s          9N8s          9N9s          9N10s         9N11s         9N1pz         9N1py         9N1px         9N2pz         9N2py     
   50    9N2px         9N3pz         9N3py         9N3px         9N4pz         9N4py         9N4px         9N5pz         9N5py         9N5px     
   51    9N6pz         9N6py         9N6px         9N7pz         9N7py         9N7px         9N8pz         9N8py         9N8px         9N1d-2    
   52    9N1d-1        9N1d0         9N1d+1        9N1d+2        9N2d-2        9N2d-1        9N2d0         9N2d+1        9N2d+2        9N3d-2    
   53    9N3d-1        9N3d0         9N3d+1        9N3d+2        9N4d-2        9N4d-1        9N4d0         9N4d+1        9N4d+2        9N5d-2    
   54    9N5d-1        9N5d0         9N5d+1        9N5d+2        9N6d-2        9N6d-1        9N6d0         9N6d+1        9N6d+2        9N1f-3    
   55    9N1f-2        9N1f-1        9N1f0         9N1f+1        9N1f+2        9N1f+3        9N2f-3        9N2f-2        9N2f-1        9N2f0     
   56    9N2f+1        9N2f+2        9N2f+3        9N3f-3        9N3f-2        9N3f-1        9N3f0         9N3f+1        9N3f+2        9N3f+3    
   57    9N1g-4        9N1g-3        9N1g-2        9N1g-1        9N1g0         9N1g+1        9N1g+2        9N1g+3        9N1g+4        9N2g-4    
   58    9N2g-3        9N2g-2        9N2g-1        9N2g0         9N2g+1        9N2g+2        9N2g+3        9N2g+4       10H1s         10H2s      
   59   10H3s         10H4s         10H5s         10H1pz        10H1py        10H1px        10H2pz        10H2py        10H2px        10H3pz     
   60   10H3py        10H3px        10H4pz        10H4py        10H4px        10H1d-2       10H1d-1       10H1d0        10H1d+1       10H1d+2    
   61   10H2d-2       10H2d-1       10H2d0        10H2d+1       10H2d+2       10H3d-2       10H3d-1       10H3d0        10H3d+1       10H3d+2    
   62   10H1f-3       10H1f-2       10H1f-1       10H1f0        10H1f+1       10H1f+2       10H1f+3       10H2f-3       10H2f-2       10H2f-1    
   63   10H2f0        10H2f+1       10H2f+2       10H2f+3       11H1s         11H2s         11H3s         11H4s         11H5s         11H1pz     
   64   11H1py        11H1px        11H2pz        11H2py        11H2px        11H3pz        11H3py        11H3px        11H4pz        11H4py     
   65   11H4px        11H1d-2       11H1d-1       11H1d0        11H1d+1       11H1d+2       11H2d-2       11H2d-1       11H2d0        11H2d+1    
   66   11H2d+2       11H3d-2       11H3d-1       11H3d0        11H3d+1       11H3d+2       11H1f-3       11H1f-2       11H1f-1       11H1f0     
   67   11H1f+1       11H1f+2       11H1f+3       11H2f-3       11H2f-2       11H2f-1       11H2f0        11H2f+1       11H2f+2       11H2f+3    
   68   12H1s         12H2s         12H3s         12H4s         12H5s         12H1pz        12H1py        12H1px        12H2pz        12H2py     
   69   12H2px        12H3pz        12H3py        12H3px        12H4pz        12H4py        12H4px        12H1d-2       12H1d-1       12H1d0     
   70   12H1d+1       12H1d+2       12H2d-2       12H2d-1       12H2d0        12H2d+1       12H2d+2       12H3d-2       12H3d-1       12H3d0     
   71   12H3d+1       12H3d+2       12H1f-3       12H1f-2       12H1f-1       12H1f0        12H1f+1       12H1f+2       12H1f+3       12H2f-3    
   72   12H2f-2       12H2f-1       12H2f0        12H2f+1       12H2f+2       12H2f+3    
 
 Maximum number of basis functions per shell:   30
 Total number of basis functions:    726
 
 
 Fitting basis set for the correlation calculation:
 
   1  N  aug-cc-pvtz-ri [ 9s 7p 6d 4f 2g | 9s 7p 6d 4f 2g ]
   2  H  aug-cc-pvtz-ri [ 5s 4p 3d 2f | 5s 4p 3d 2f ]
   3  H  aug-cc-pvtz-ri [ 5s 4p 3d 2f | 5s 4p 3d 2f ]
   4  H  aug-cc-pvtz-ri [ 5s 4p 3d 2f | 5s 4p 3d 2f ]
   5  N  aug-cc-pvtz-ri [ 9s 7p 6d 4f 2g | 9s 7p 6d 4f 2g ]
   6  H  aug-cc-pvtz-ri [ 5s 4p 3d 2f | 5s 4p 3d 2f ]
   7  H  aug-cc-pvtz-ri [ 5s 4p 3d 2f | 5s 4p 3d 2f ]
   8  H  aug-cc-pvtz-ri [ 5s 4p 3d 2f | 5s 4p 3d 2f ]
   9  N  aug-cc-pvtz-ri [ 9s 7p 6d 4f 2g | 9s 7p 6d 4f 2g ]
  10  H  aug-cc-pvtz-ri [ 5s 4p 3d 2f | 5s 4p 3d 2f ]
  11  H  aug-cc-pvtz-ri [ 5s 4p 3d 2f | 5s 4p 3d 2f ]
  12  H  aug-cc-pvtz-ri [ 5s 4p 3d 2f | 5s 4p 3d 2f ]
 
 Basis functions:
            1             2             3             4             5             6             7             8             9            10
    0    1N1s          1N2s          1N3s          1N4s          1N5s          1N6s          1N7s          1N8s          1N9s          1N1pz     
    1    1N1py         1N1px         1N2pz         1N2py         1N2px         1N3pz         1N3py         1N3px         1N4pz         1N4py     
    2    1N4px         1N5pz         1N5py         1N5px         1N6pz         1N6py         1N6px         1N7pz         1N7py         1N7px     
    3    1N1d-2        1N1d-1        1N1d0         1N1d+1        1N1d+2        1N2d-2        1N2d-1        1N2d0         1N2d+1        1N2d+2    
    4    1N3d-2        1N3d-1        1N3d0         1N3d+1        1N3d+2        1N4d-2        1N4d-1        1N4d0         1N4d+1        1N4d+2    
    5    1N5d-2        1N5d-1        1N5d0         1N5d+1        1N5d+2        1N6d-2        1N6d-1        1N6d0         1N6d+1        1N6d+2    
    6    1N1f-3        1N1f-2        1N1f-1        1N1f0         1N1f+1        1N1f+2        1N1f+3        1N2f-3        1N2f-2        1N2f-1    
    7    1N2f0         1N2f+1        1N2f+2        1N2f+3        1N3f-3        1N3f-2        1N3f-1        1N3f0         1N3f+1        1N3f+2    
    8    1N3f+3        1N4f-3        1N4f-2        1N4f-1        1N4f0         1N4f+1        1N4f+2        1N4f+3        1N1g-4        1N1g-3    
    9    1N1g-2        1N1g-1        1N1g0         1N1g+1        1N1g+2        1N1g+3        1N1g+4        1N2g-4        1N2g-3        1N2g-2    
   10    1N2g-1        1N2g0         1N2g+1        1N2g+2        1N2g+3        1N2g+4        2H1s          2H2s          2H3s          2H4s      
   11    2H5s          2H1pz         2H1py         2H1px         2H2pz         2H2py         2H2px         2H3pz         2H3py         2H3px     
   12    2H4pz         2H4py         2H4px         2H1d-2        2H1d-1        2H1d0         2H1d+1        2H1d+2        2H2d-2        2H2d-1    
   13    2H2d0         2H2d+1        2H2d+2        2H3d-2        2H3d-1        2H3d0         2H3d+1        2H3d+2        2H1f-3        2H1f-2    
   14    2H1f-1        2H1f0         2H1f+1        2H1f+2        2H1f+3        2H2f-3        2H2f-2        2H2f-1        2H2f0         2H2f+1    
   15    2H2f+2        2H2f+3        3H1s          3H2s          3H3s          3H4s          3H5s          3H1pz         3H1py         3H1px     
   16    3H2pz         3H2py         3H2px         3H3pz         3H3py         3H3px         3H4pz         3H4py         3H4px         3H1d-2    
   17    3H1d-1        3H1d0         3H1d+1        3H1d+2        3H2d-2        3H2d-1        3H2d0         3H2d+1        3H2d+2        3H3d-2    
   18    3H3d-1        3H3d0         3H3d+1        3H3d+2        3H1f-3        3H1f-2        3H1f-1        3H1f0         3H1f+1        3H1f+2    
   19    3H1f+3        3H2f-3        3H2f-2        3H2f-1        3H2f0         3H2f+1        3H2f+2        3H2f+3        4H1s          4H2s      
   20    4H3s          4H4s          4H5s          4H1pz         4H1py         4H1px         4H2pz         4H2py         4H2px         4H3pz     
   21    4H3py         4H3px         4H4pz         4H4py         4H4px         4H1d-2        4H1d-1        4H1d0         4H1d+1        4H1d+2    
   22    4H2d-2        4H2d-1        4H2d0         4H2d+1        4H2d+2        4H3d-2        4H3d-1        4H3d0         4H3d+1        4H3d+2    
   23    4H1f-3        4H1f-2        4H1f-1        4H1f0         4H1f+1        4H1f+2        4H1f+3        4H2f-3        4H2f-2        4H2f-1    
   24    4H2f0         4H2f+1        4H2f+2        4H2f+3        5N1s          5N2s          5N3s          5N4s          5N5s          5N6s      
   25    5N7s          5N8s          5N9s          5N1pz         5N1py         5N1px         5N2pz         5N2py         5N2px         5N3pz     
   26    5N3py         5N3px         5N4pz         5N4py         5N4px         5N5pz         5N5py         5N5px         5N6pz         5N6py     
   27    5N6px         5N7pz         5N7py         5N7px         5N1d-2        5N1d-1        5N1d0         5N1d+1        5N1d+2        5N2d-2    
   28    5N2d-1        5N2d0         5N2d+1        5N2d+2        5N3d-2        5N3d-1        5N3d0         5N3d+1        5N3d+2        5N4d-2    
   29    5N4d-1        5N4d0         5N4d+1        5N4d+2        5N5d-2        5N5d-1        5N5d0         5N5d+1        5N5d+2        5N6d-2    
   30    5N6d-1        5N6d0         5N6d+1        5N6d+2        5N1f-3        5N1f-2        5N1f-1        5N1f0         5N1f+1        5N1f+2    
   31    5N1f+3        5N2f-3        5N2f-2        5N2f-1        5N2f0         5N2f+1        5N2f+2        5N2f+3        5N3f-3        5N3f-2    
   32    5N3f-1        5N3f0         5N3f+1        5N3f+2        5N3f+3        5N4f-3        5N4f-2        5N4f-1        5N4f0         5N4f+1    
   33    5N4f+2        5N4f+3        5N1g-4        5N1g-3        5N1g-2        5N1g-1        5N1g0         5N1g+1        5N1g+2        5N1g+3    
   34    5N1g+4        5N2g-4        5N2g-3        5N2g-2        5N2g-1        5N2g0         5N2g+1        5N2g+2        5N2g+3        5N2g+4    
   35    6H1s          6H2s          6H3s          6H4s          6H5s          6H1pz         6H1py         6H1px         6H2pz         6H2py     
   36    6H2px         6H3pz         6H3py         6H3px         6H4pz         6H4py         6H4px         6H1d-2        6H1d-1        6H1d0     
   37    6H1d+1        6H1d+2        6H2d-2        6H2d-1        6H2d0         6H2d+1        6H2d+2        6H3d-2        6H3d-1        6H3d0     
   38    6H3d+1        6H3d+2        6H1f-3        6H1f-2        6H1f-1        6H1f0         6H1f+1        6H1f+2        6H1f+3        6H2f-3    
   39    6H2f-2        6H2f-1        6H2f0         6H2f+1        6H2f+2        6H2f+3        7H1s          7H2s          7H3s          7H4s      
   40    7H5s          7H1pz         7H1py         7H1px         7H2pz         7H2py         7H2px         7H3pz         7H3py         7H3px     
   41    7H4pz         7H4py         7H4px         7H1d-2        7H1d-1        7H1d0         7H1d+1        7H1d+2        7H2d-2        7H2d-1    
   42    7H2d0         7H2d+1        7H2d+2        7H3d-2        7H3d-1        7H3d0         7H3d+1        7H3d+2        7H1f-3        7H1f-2    
   43    7H1f-1        7H1f0         7H1f+1        7H1f+2        7H1f+3        7H2f-3        7H2f-2        7H2f-1        7H2f0         7H2f+1    
   44    7H2f+2        7H2f+3        8H1s          8H2s          8H3s          8H4s          8H5s          8H1pz         8H1py         8H1px     
   45    8H2pz         8H2py         8H2px         8H3pz         8H3py         8H3px         8H4pz         8H4py         8H4px         8H1d-2    
   46    8H1d-1        8H1d0         8H1d+1        8H1d+2        8H2d-2        8H2d-1        8H2d0         8H2d+1        8H2d+2        8H3d-2    
   47    8H3d-1        8H3d0         8H3d+1        8H3d+2        8H1f-3        8H1f-2        8H1f-1        8H1f0         8H1f+1        8H1f+2    
   48    8H1f+3        8H2f-3        8H2f-2        8H2f-1        8H2f0         8H2f+1        8H2f+2        8H2f+3        9N1s          9N2s      
   49    9N3s          9N4s          9N5s          9N6s          9N7s          9N8s          9N9s          9N1pz         9N1py         9N1px     
   50    9N2pz         9N2py         9N2px         9N3pz         9N3py         9N3px         9N4pz         9N4py         9N4px         9N5pz     
   51    9N5py         9N5px         9N6pz         9N6py         9N6px         9N7pz         9N7py         9N7px         9N1d-2        9N1d-1    
   52    9N1d0         9N1d+1        9N1d+2        9N2d-2        9N2d-1        9N2d0         9N2d+1        9N2d+2        9N3d-2        9N3d-1    
   53    9N3d0         9N3d+1        9N3d+2        9N4d-2        9N4d-1        9N4d0         9N4d+1        9N4d+2        9N5d-2        9N5d-1    
   54    9N5d0         9N5d+1        9N5d+2        9N6d-2        9N6d-1        9N6d0         9N6d+1        9N6d+2        9N1f-3        9N1f-2    
   55    9N1f-1        9N1f0         9N1f+1        9N1f+2        9N1f+3        9N2f-3        9N2f-2        9N2f-1        9N2f0         9N2f+1    
   56    9N2f+2        9N2f+3        9N3f-3        9N3f-2        9N3f-1        9N3f0         9N3f+1        9N3f+2        9N3f+3        9N4f-3    
   57    9N4f-2        9N4f-1        9N4f0         9N4f+1        9N4f+2        9N4f+3        9N1g-4        9N1g-3        9N1g-2        9N1g-1    
   58    9N1g0         9N1g+1        9N1g+2        9N1g+3        9N1g+4        9N2g-4        9N2g-3        9N2g-2        9N2g-1        9N2g0     
   59    9N2g+1        9N2g+2        9N2g+3        9N2g+4       10H1s         10H2s         10H3s         10H4s         10H5s         10H1pz     
   60   10H1py        10H1px        10H2pz        10H2py        10H2px        10H3pz        10H3py        10H3px        10H4pz        10H4py     
   61   10H4px        10H1d-2       10H1d-1       10H1d0        10H1d+1       10H1d+2       10H2d-2       10H2d-1       10H2d0        10H2d+1    
   62   10H2d+2       10H3d-2       10H3d-1       10H3d0        10H3d+1       10H3d+2       10H1f-3       10H1f-2       10H1f-1       10H1f0     
   63   10H1f+1       10H1f+2       10H1f+3       10H2f-3       10H2f-2       10H2f-1       10H2f0        10H2f+1       10H2f+2       10H2f+3    
   64   11H1s         11H2s         11H3s         11H4s         11H5s         11H1pz        11H1py        11H1px        11H2pz        11H2py     
   65   11H2px        11H3pz        11H3py        11H3px        11H4pz        11H4py        11H4px        11H1d-2       11H1d-1       11H1d0     
   66   11H1d+1       11H1d+2       11H2d-2       11H2d-1       11H2d0        11H2d+1       11H2d+2       11H3d-2       11H3d-1       11H3d0     
   67   11H3d+1       11H3d+2       11H1f-3       11H1f-2       11H1f-1       11H1f0        11H1f+1       11H1f+2       11H1f+3       11H2f-3    
   68   11H2f-2       11H2f-1       11H2f0        11H2f+1       11H2f+2       11H2f+3       12H1s         12H2s         12H3s         12H4s      
   69   12H5s         12H1pz        12H1py        12H1px        12H2pz        12H2py        12H2px        12H3pz        12H3py        12H3px     
   70   12H4pz        12H4py        12H4px        12H1d-2       12H1d-1       12H1d0        12H1d+1       12H1d+2       12H2d-2       12H2d-1    
   71   12H2d0        12H2d+1       12H2d+2       12H3d-2       12H3d-1       12H3d0        12H3d+1       12H3d+2       12H1f-3       12H1f-2    
   72   12H1f-1       12H1f0        12H1f+1       12H1f+2       12H1f+3       12H2f-3       12H2f-2       12H2f-1       12H2f0        12H2f+1    
   73   12H2f+2       12H2f+3    
 
 Maximum number of basis functions per shell:   30
 Total number of basis functions:    732
 
 
 Old basis set for SCF restart
 
   1  N  def2-svp [ 7s 4p 1d | 3s 2p 1d ]
   2  H  def2-svp [ 4s 1p | 2s 1p ]
   3  H  def2-svp [ 4s 1p | 2s 1p ]
   4  H  def2-svp [ 4s 1p | 2s 1p ]
   5  N  def2-svp [ 7s 4p 1d | 3s 2p 1d ]
   6  H  def2-svp [ 4s 1p | 2s 1p ]
   7  H  def2-svp [ 4s 1p | 2s 1p ]
   8  H  def2-svp [ 4s 1p | 2s 1p ]
   9  N  def2-svp [ 7s 4p 1d | 3s 2p 1d ]
  10  H  def2-svp [ 4s 1p | 2s 1p ]
  11  H  def2-svp [ 4s 1p | 2s 1p ]
  12  H  def2-svp [ 4s 1p | 2s 1p ]
 
 Basis functions:
            1             2             3             4             5             6             7             8             9            10
    0    1N1s          1N2s          1N3s          1N1pz         1N1py         1N1px         1N2pz         1N2py         1N2px         1N1d-2    
    1    1N1d-1        1N1d0         1N1d+1        1N1d+2        2H1s          2H2s          2H1pz         2H1py         2H1px         3H1s      
    2    3H2s          3H1pz         3H1py         3H1px         4H1s          4H2s          4H1pz         4H1py         4H1px         5N1s      
[...]
   44    8H3s          8H4s          8H5s          8H1pz         8H1py         8H1px         8H2pz         8H2py         8H2px         8H3pz     
   45    8H3py         8H3px         8H4pz         8H4py         8H4px         8H1d-2        8H1d-1        8H1d0         8H1d+1        8H1d+2    
   46    8H2d-2        8H2d-1        8H2d0         8H2d+1        8H2d+2        8H3d-2        8H3d-1        8H3d0         8H3d+1        8H3d+2    
   47    8H1f-3        8H1f-2        8H1f-1        8H1f0         8H1f+1        8H1f+2        8H1f+3        8H2f-3        8H2f-2        8H2f-1    
   48    8H2f0         8H2f+1        8H2f+2        8H2f+3        9N1s          9N2s          9N3s          9N4s          9N5s          9N6s      
   49    9N7s          9N8s          9N9s          9N10s         9N11s         9N1pz         9N1py         9N1px         9N2pz         9N2py     
   50    9N2px         9N3pz         9N3py         9N3px         9N4pz         9N4py         9N4px         9N5pz         9N5py         9N5px     
   51    9N6pz         9N6py         9N6px         9N7pz         9N7py         9N7px         9N8pz         9N8py         9N8px         9N1d-2    
   52    9N1d-1        9N1d0         9N1d+1        9N1d+2        9N2d-2        9N2d-1        9N2d0         9N2d+1        9N2d+2        9N3d-2    
   53    9N3d-1        9N3d0         9N3d+1        9N3d+2        9N4d-2        9N4d-1        9N4d0         9N4d+1        9N4d+2        9N5d-2    
   54    9N5d-1        9N5d0         9N5d+1        9N5d+2        9N6d-2        9N6d-1        9N6d0         9N6d+1        9N6d+2        9N1f-3    
   55    9N1f-2        9N1f-1        9N1f0         9N1f+1        9N1f+2        9N1f+3        9N2f-3        9N2f-2        9N2f-1        9N2f0     
   56    9N2f+1        9N2f+2        9N2f+3        9N3f-3        9N3f-2        9N3f-1        9N3f0         9N3f+1        9N3f+2        9N3f+3    
   57    9N1g-4        9N1g-3        9N1g-2        9N1g-1        9N1g0         9N1g+1        9N1g+2        9N1g+3        9N1g+4        9N2g-4    
   58    9N2g-3        9N2g-2        9N2g-1        9N2g0         9N2g+1        9N2g+2        9N2g+3        9N2g+4       10H1s         10H2s      
   59   10H3s         10H4s         10H5s         10H1pz        10H1py        10H1px        10H2pz        10H2py        10H2px        10H3pz     
   60   10H3py        10H3px        10H4pz        10H4py        10H4px        10H1d-2       10H1d-1       10H1d0        10H1d+1       10H1d+2    
   61   10H2d-2       10H2d-1       10H2d0        10H2d+1       10H2d+2       10H3d-2       10H3d-1       10H3d0        10H3d+1       10H3d+2    
   62   10H1f-3       10H1f-2       10H1f-1       10H1f0        10H1f+1       10H1f+2       10H1f+3       10H2f-3       10H2f-2       10H2f-1    
   63   10H2f0        10H2f+1       10H2f+2       10H2f+3       11H1s         11H2s         11H3s         11H4s         11H5s         11H1pz     
   64   11H1py        11H1px        11H2pz        11H2py        11H2px        11H3pz        11H3py        11H3px        11H4pz        11H4py     
   65   11H4px        11H1d-2       11H1d-1       11H1d0        11H1d+1       11H1d+2       11H2d-2       11H2d-1       11H2d0        11H2d+1    
   66   11H2d+2       11H3d-2       11H3d-1       11H3d0        11H3d+1       11H3d+2       11H1f-3       11H1f-2       11H1f-1       11H1f0     
   67   11H1f+1       11H1f+2       11H1f+3       11H2f-3       11H2f-2       11H2f-1       11H2f0        11H2f+1       11H2f+2       11H2f+3    
   68   12H1s         12H2s         12H3s         12H4s         12H5s         12H1pz        12H1py        12H1px        12H2pz        12H2py     
   69   12H2px        12H3pz        12H3py        12H3px        12H4pz        12H4py        12H4px        12H1d-2       12H1d-1       12H1d0     
   70   12H1d+1       12H1d+2       12H2d-2       12H2d-1       12H2d0        12H2d+1       12H2d+2       12H3d-2       12H3d-1       12H3d0     
   71   12H3d+1       12H3d+2       12H1f-3       12H1f-2       12H1f-1       12H1f0        12H1f+1       12H1f+2       12H1f+3       12H2f-3    
   72   12H2f-2       12H2f-1       12H2f0        12H2f+1       12H2f+2       12H2f+3    
 
 Maximum number of basis functions per shell:   30
 Total number of basis functions:    726
 
 
 Fitting basis set for the correlation calculation:
 
   1  N  aug-cc-pvtz-ri [ 9s 7p 6d 4f 2g | 9s 7p 6d 4f 2g ]
   2  H  aug-cc-pvtz-ri [ 5s 4p 3d 2f | 5s 4p 3d 2f ]
   3  H  aug-cc-pvtz-ri [ 5s 4p 3d 2f | 5s 4p 3d 2f ]
   4  H  aug-cc-pvtz-ri [ 5s 4p 3d 2f | 5s 4p 3d 2f ]
   5  N  aug-cc-pvtz-ri [ 9s 7p 6d 4f 2g | 9s 7p 6d 4f 2g ]
   6  H  aug-cc-pvtz-ri [ 5s 4p 3d 2f | 5s 4p 3d 2f ]
   7  H  aug-cc-pvtz-ri [ 5s 4p 3d 2f | 5s 4p 3d 2f ]
   8  H  aug-cc-pvtz-ri [ 5s 4p 3d 2f | 5s 4p 3d 2f ]
   9  N  aug-cc-pvtz-ri [ 9s 7p 6d 4f 2g | 9s 7p 6d 4f 2g ]
  10  H  aug-cc-pvtz-ri [ 5s 4p 3d 2f | 5s 4p 3d 2f ]
  11  H  aug-cc-pvtz-ri [ 5s 4p 3d 2f | 5s 4p 3d 2f ]
  12  H  aug-cc-pvtz-ri [ 5s 4p 3d 2f | 5s 4p 3d 2f ]
 
 Basis functions:
            1             2             3             4             5             6             7             8             9            10
    0    1N1s          1N2s          1N3s          1N4s          1N5s          1N6s          1N7s          1N8s          1N9s          1N1pz     
    1    1N1py         1N1px         1N2pz         1N2py         1N2px         1N3pz         1N3py         1N3px         1N4pz         1N4py     
    2    1N4px         1N5pz         1N5py         1N5px         1N6pz         1N6py         1N6px         1N7pz         1N7py         1N7px     
    3    1N1d-2        1N1d-1        1N1d0         1N1d+1        1N1d+2        1N2d-2        1N2d-1        1N2d0         1N2d+1        1N2d+2    
    4    1N3d-2        1N3d-1        1N3d0         1N3d+1        1N3d+2        1N4d-2        1N4d-1        1N4d0         1N4d+1        1N4d+2    
    5    1N5d-2        1N5d-1        1N5d0         1N5d+1        1N5d+2        1N6d-2        1N6d-1        1N6d0         1N6d+1        1N6d+2    
    6    1N1f-3        1N1f-2        1N1f-1        1N1f0         1N1f+1        1N1f+2        1N1f+3        1N2f-3        1N2f-2        1N2f-1    
    7    1N2f0         1N2f+1        1N2f+2        1N2f+3        1N3f-3        1N3f-2        1N3f-1        1N3f0         1N3f+1        1N3f+2    
    8    1N3f+3        1N4f-3        1N4f-2        1N4f-1        1N4f0         1N4f+1        1N4f+2        1N4f+3        1N1g-4        1N1g-3    
    9    1N1g-2        1N1g-1        1N1g0         1N1g+1        1N1g+2        1N1g+3        1N1g+4        1N2g-4        1N2g-3        1N2g-2    
   10    1N2g-1        1N2g0         1N2g+1        1N2g+2        1N2g+3        1N2g+4        2H1s          2H2s          2H3s          2H4s      
   11    2H5s          2H1pz         2H1py         2H1px         2H2pz         2H2py         2H2px         2H3pz         2H3py         2H3px     
   12    2H4pz         2H4py         2H4px         2H1d-2        2H1d-1        2H1d0         2H1d+1        2H1d+2        2H2d-2        2H2d-1    
   13    2H2d0         2H2d+1        2H2d+2        2H3d-2        2H3d-1        2H3d0         2H3d+1        2H3d+2        2H1f-3        2H1f-2    
   14    2H1f-1        2H1f0         2H1f+1        2H1f+2        2H1f+3        2H2f-3        2H2f-2        2H2f-1        2H2f0         2H2f+1    
   15    2H2f+2        2H2f+3        3H1s          3H2s          3H3s          3H4s          3H5s          3H1pz         3H1py         3H1px     
   16    3H2pz         3H2py         3H2px         3H3pz         3H3py         3H3px         3H4pz         3H4py         3H4px         3H1d-2    
   17    3H1d-1        3H1d0         3H1d+1        3H1d+2        3H2d-2        3H2d-1        3H2d0         3H2d+1        3H2d+2        3H3d-2    
   18    3H3d-1        3H3d0         3H3d+1        3H3d+2        3H1f-3        3H1f-2        3H1f-1        3H1f0         3H1f+1        3H1f+2    
   19    3H1f+3        3H2f-3        3H2f-2        3H2f-1        3H2f0         3H2f+1        3H2f+2        3H2f+3        4H1s          4H2s      
   20    4H3s          4H4s          4H5s          4H1pz         4H1py         4H1px         4H2pz         4H2py         4H2px         4H3pz     
   21    4H3py         4H3px         4H4pz         4H4py         4H4px         4H1d-2        4H1d-1        4H1d0         4H1d+1        4H1d+2    
   22    4H2d-2        4H2d-1        4H2d0         4H2d+1        4H2d+2        4H3d-2        4H3d-1        4H3d0         4H3d+1        4H3d+2    
   23    4H1f-3        4H1f-2        4H1f-1        4H1f0         4H1f+1        4H1f+2        4H1f+3        4H2f-3        4H2f-2        4H2f-1    
   24    4H2f0         4H2f+1        4H2f+2        4H2f+3        5N1s          5N2s          5N3s          5N4s          5N5s          5N6s      
   25    5N7s          5N8s          5N9s          5N1pz         5N1py         5N1px         5N2pz         5N2py         5N2px         5N3pz     
   26    5N3py         5N3px         5N4pz         5N4py         5N4px         5N5pz         5N5py         5N5px         5N6pz         5N6py     
   27    5N6px         5N7pz         5N7py         5N7px         5N1d-2        5N1d-1        5N1d0         5N1d+1        5N1d+2        5N2d-2    
   28    5N2d-1        5N2d0         5N2d+1        5N2d+2        5N3d-2        5N3d-1        5N3d0         5N3d+1        5N3d+2        5N4d-2    
   29    5N4d-1        5N4d0         5N4d+1        5N4d+2        5N5d-2        5N5d-1        5N5d0         5N5d+1        5N5d+2        5N6d-2    
   30    5N6d-1        5N6d0         5N6d+1        5N6d+2        5N1f-3        5N1f-2        5N1f-1        5N1f0         5N1f+1        5N1f+2    
   31    5N1f+3        5N2f-3        5N2f-2        5N2f-1        5N2f0         5N2f+1        5N2f+2        5N2f+3        5N3f-3        5N3f-2    
   32    5N3f-1        5N3f0         5N3f+1        5N3f+2        5N3f+3        5N4f-3        5N4f-2        5N4f-1        5N4f0         5N4f+1    
   33    5N4f+2        5N4f+3        5N1g-4        5N1g-3        5N1g-2        5N1g-1        5N1g0         5N1g+1        5N1g+2        5N1g+3    
   34    5N1g+4        5N2g-4        5N2g-3        5N2g-2        5N2g-1        5N2g0         5N2g+1        5N2g+2        5N2g+3        5N2g+4    
   35    6H1s          6H2s          6H3s          6H4s          6H5s          6H1pz         6H1py         6H1px         6H2pz         6H2py     
   36    6H2px         6H3pz         6H3py         6H3px         6H4pz         6H4py         6H4px         6H1d-2        6H1d-1        6H1d0     
   37    6H1d+1        6H1d+2        6H2d-2        6H2d-1        6H2d0         6H2d+1        6H2d+2        6H3d-2        6H3d-1        6H3d0     
   38    6H3d+1        6H3d+2        6H1f-3        6H1f-2        6H1f-1        6H1f0         6H1f+1        6H1f+2        6H1f+3        6H2f-3    
   39    6H2f-2        6H2f-1        6H2f0         6H2f+1        6H2f+2        6H2f+3        7H1s          7H2s          7H3s          7H4s      
   40    7H5s          7H1pz         7H1py         7H1px         7H2pz         7H2py         7H2px         7H3pz         7H3py         7H3px     
   41    7H4pz         7H4py         7H4px         7H1d-2        7H1d-1        7H1d0         7H1d+1        7H1d+2        7H2d-2        7H2d-1    
   42    7H2d0         7H2d+1        7H2d+2        7H3d-2        7H3d-1        7H3d0         7H3d+1        7H3d+2        7H1f-3        7H1f-2    
   43    7H1f-1        7H1f0         7H1f+1        7H1f+2        7H1f+3        7H2f-3        7H2f-2        7H2f-1        7H2f0         7H2f+1    
   44    7H2f+2        7H2f+3        8H1s          8H2s          8H3s          8H4s          8H5s          8H1pz         8H1py         8H1px     
   45    8H2pz         8H2py         8H2px         8H3pz         8H3py         8H3px         8H4pz         8H4py         8H4px         8H1d-2    
   46    8H1d-1        8H1d0         8H1d+1        8H1d+2        8H2d-2        8H2d-1        8H2d0         8H2d+1        8H2d+2        8H3d-2    
   47    8H3d-1        8H3d0         8H3d+1        8H3d+2        8H1f-3        8H1f-2        8H1f-1        8H1f0         8H1f+1        8H1f+2    
   48    8H1f+3        8H2f-3        8H2f-2        8H2f-1        8H2f0         8H2f+1        8H2f+2        8H2f+3        9N1s          9N2s      
   49    9N3s          9N4s          9N5s          9N6s          9N7s          9N8s          9N9s          9N1pz         9N1py         9N1px     
   50    9N2pz         9N2py         9N2px         9N3pz         9N3py         9N3px         9N4pz         9N4py         9N4px         9N5pz     
   51    9N5py         9N5px         9N6pz         9N6py         9N6px         9N7pz         9N7py         9N7px         9N1d-2        9N1d-1    
   52    9N1d0         9N1d+1        9N1d+2        9N2d-2        9N2d-1        9N2d0         9N2d+1        9N2d+2        9N3d-2        9N3d-1    
   53    9N3d0         9N3d+1        9N3d+2        9N4d-2        9N4d-1        9N4d0         9N4d+1        9N4d+2        9N5d-2        9N5d-1    
   54    9N5d0         9N5d+1        9N5d+2        9N6d-2        9N6d-1        9N6d0         9N6d+1        9N6d+2        9N1f-3        9N1f-2    
   55    9N1f-1        9N1f0         9N1f+1        9N1f+2        9N1f+3        9N2f-3        9N2f-2        9N2f-1        9N2f0         9N2f+1    
   56    9N2f+2        9N2f+3        9N3f-3        9N3f-2        9N3f-1        9N3f0         9N3f+1        9N3f+2        9N3f+3        9N4f-3    
   57    9N4f-2        9N4f-1        9N4f0         9N4f+1        9N4f+2        9N4f+3        9N1g-4        9N1g-3        9N1g-2        9N1g-1    
   58    9N1g0         9N1g+1        9N1g+2        9N1g+3        9N1g+4        9N2g-4        9N2g-3        9N2g-2        9N2g-1        9N2g0     
   59    9N2g+1        9N2g+2        9N2g+3        9N2g+4       10H1s         10H2s         10H3s         10H4s         10H5s         10H1pz     
   60   10H1py        10H1px        10H2pz        10H2py        10H2px        10H3pz        10H3py        10H3px        10H4pz        10H4py     
   61   10H4px        10H1d-2       10H1d-1       10H1d0        10H1d+1       10H1d+2       10H2d-2       10H2d-1       10H2d0        10H2d+1    
   62   10H2d+2       10H3d-2       10H3d-1       10H3d0        10H3d+1       10H3d+2       10H1f-3       10H1f-2       10H1f-1       10H1f0     
   63   10H1f+1       10H1f+2       10H1f+3       10H2f-3       10H2f-2       10H2f-1       10H2f0        10H2f+1       10H2f+2       10H2f+3    
   64   11H1s         11H2s         11H3s         11H4s         11H5s         11H1pz        11H1py        11H1px        11H2pz        11H2py     
   65   11H2px        11H3pz        11H3py        11H3px        11H4pz        11H4py        11H4px        11H1d-2       11H1d-1       11H1d0     
   66   11H1d+1       11H1d+2       11H2d-2       11H2d-1       11H2d0        11H2d+1       11H2d+2       11H3d-2       11H3d-1       11H3d0     
   67   11H3d+1       11H3d+2       11H1f-3       11H1f-2       11H1f-1       11H1f0        11H1f+1       11H1f+2       11H1f+3       11H2f-3    
   68   11H2f-2       11H2f-1       11H2f0        11H2f+1       11H2f+2       11H2f+3       12H1s         12H2s         12H3s         12H4s      
   69   12H5s         12H1pz        12H1py        12H1px        12H2pz        12H2py        12H2px        12H3pz        12H3py        12H3px     
   70   12H4pz        12H4py        12H4px        12H1d-2       12H1d-1       12H1d0        12H1d+1       12H1d+2       12H2d-2       12H2d-1    
   71   12H2d0        12H2d+1       12H2d+2       12H3d-2       12H3d-1       12H3d0        12H3d+1       12H3d+2       12H1f-3       12H1f-2    
   72   12H1f-1       12H1f0        12H1f+1       12H1f+2       12H1f+3       12H2f-3       12H2f-2       12H2f-1       12H2f0        12H2f+1    
   73   12H2f+2       12H2f+3    
 
 Maximum number of basis functions per shell:   30
 Total number of basis functions:    732
 
 
 Old basis set for SCF restart
 
   1  N  def2-svp [ 7s 4p 1d | 3s 2p 1d ]
   2  H  def2-svp [ 4s 1p | 2s 1p ]
   3  H  def2-svp [ 4s 1p | 2s 1p ]
   4  H  def2-svp [ 4s 1p | 2s 1p ]
   5  N  def2-svp [ 7s 4p 1d | 3s 2p 1d ]
   6  H  def2-svp [ 4s 1p | 2s 1p ]
   7  H  def2-svp [ 4s 1p | 2s 1p ]
   8  H  def2-svp [ 4s 1p | 2s 1p ]
   9  N  def2-svp [ 7s 4p 1d | 3s 2p 1d ]
  10  H  def2-svp [ 4s 1p | 2s 1p ]
  11  H  def2-svp [ 4s 1p | 2s 1p ]
  12  H  def2-svp [ 4s 1p | 2s 1p ]
 
 Basis functions:
            1             2             3             4             5             6             7             8             9            10
    0    1N1s          1N2s          1N3s          1N1pz         1N1py         1N1px         1N2pz         1N2py         1N2px         1N1d-2    
    1    1N1d-1        1N1d0         1N1d+1        1N1d+2        2H1s          2H2s          2H1pz         2H1py         2H1px         3H1s      
    2    3H2s          3H1pz         3H1py         3H1px         4H1s          4H2s          4H1pz         4H1py         4H1px         5N1s      
    3    5N2s          5N3s          5N1pz         5N1py         5N1px         5N2pz         5N2py         5N2px         5N1d-2        5N1d-1    
    4    5N1d0         5N1d+1        5N1d+2        6H1s          6H2s          6H1pz         6H1py         6H1px         7H1s          7H2s      
    5    7H1pz         7H1py         7H1px         8H1s          8H2s          8H1pz         8H1py         8H1px         9N1s          9N2s      
    6    9N3s          9N1pz         9N1py         9N1px         9N2pz         9N2py         9N2px         9N1d-2        9N1d-1        9N1d0     
    7    9N1d+1        9N1d+2       10H1s         10H2s         10H1pz        10H1py        10H1px        11H1s         11H2s         11H1pz     
    8   11H1py        11H1px        12H1s         12H2s         12H1pz        12H1py        12H1px     
 
 Maximum number of basis functions per shell:   30
 Total number of basis functions:     87
 
 
 Calculation of prescreening integrals...
 CPU time [min]:     0.340                   Wall time [min]:     0.009
 
 Calculation of two-center Coulomb integrals...
   1% done.
  12% done.
  23% done.
  34% done.
  46% done.
  62% done.
  73% done.
  84% done.
  96% done.
 100% done.
 CPU time [min]:     0.356                   Wall time [min]:     0.009
 
 Cholesky decomposition of the inverse of the two-center matrix...
 CPU time [min]:     0.389                   Wall time [min]:     0.010
 
 Calculation of three-center Coulomb integrals...
   1% done.
  12% done.
  23% done.
  36% done.
  51% done.
  64% done.
  75% done.
  87% done.
 100% done.
 CPU time [min]:     3.428                   Wall time [min]:     0.058

 ************************ 2026-02-26 22:40:48 *************************
 Executing drpa...

 Three-index integral transformation and DF-MP2 calculation
 Allocation of 46.0 Gbytes of memory...
 
 Minimal memory requirement for (ai|P) integrals:       16.5 MB

 Calculating (ai|P) integrals...
 Number of integral batches:    1
 Occupied indices per batch:    4
 
 Transforming integrals of batch 1...
 CPU time [min]:     0.436                   Wall time [min]:     0.016
 
 
 
 Reference energy [au]:                       -56.218907501405
 DF-MP2 singlet pair energy [au]:              -0.187792042864
 DF-MP2 triplet pair energy [au]:              -0.053270308365
 DF-SCS-MP2 correlation energy [au]:           -0.243107220892
 DF-SCS-MP2 energy [au]:                      -56.462014722296
 DF-SOS-MP2 correlation energy [au]:           -0.244129655723
 DF-SOS-MP2 energy [au]:                      -56.463037157128
 DF-MP2 correlation energy [au]:               -0.241062351229
 DF-MP2 energy [au]:                          -56.459969852634
 
 ************************ 2026-02-26 22:40:49 *************************
                      Normal termination of mrcc.
 **********************************************************************
