 **********************************************************************
                          MRCC program system
 **********************************************************************
 
                              Written by
     Mihaly Kallay, Peter R. Nagy, David Mester, Laszlo Gyevi-Nagy,
        Jozsef Csoka, P. Bernat Szabo, Zoltan Rolik, Gyula Samu,
     Jozsef Csontos, Bence Hegely, Adam Ganyecz, Istvan Ladjanszki,
       Lorant Szegedy, Bence Ladoczki, Klara Petrov, Mate Farkas,
                    Pal D. Mezei, and Reka A. Horvath
 
        Department of Physical Chemistry and Materials Science
            Budapest University of Technology and Economics
                  Budapest P.O.Box 91, H-1521 Hungary
 
                              www.mrcc.hu
 
                     Release date: August 28, 2023

 ************************ 2026-02-26 20:21:58 *************************
 Executing minp...

 Reading input from MINP...
 
 Input file:
 
charge=0
mult=1
calc=DF-MP2
basis=aug-cc-pVTZ
symm=off
verbosity=3
unit=angs
scfalg=locfit1
scfmaxit=200
scftol=8
basis_sm=def2-SVP
scfiguess=small
mem=46GB
ghost=serialno
1-4

geom=xyz
12

N      1.52055517382    4.08582522547    3.60997942338
H      2.03268242072    3.26858901465    3.96157875919
H      0.70326531255    3.73418533747    3.09787832187
H      1.16887278831    4.59789384265    4.42732807018
N      3.60995473454    6.65107191074    4.08577558721
H      4.42722968319    6.29943531034    4.59786809656
H      3.96163147006    7.16314798552    3.26841604077
H      3.09781293566    5.83383789254    3.73416418411
N      4.08580437245    8.74042628524    6.65101993408
H      3.73412022664    8.22835482065    5.83367042895
H      4.59792989480    9.55765858900    6.29942160276
H      3.26851213636    9.09206461954    7.16312088514
 
 
 Checking keyword combinations...
 
 Keywords:
 
 active=none
 agrid=ld0006-ld0590
 agrid_pssp=ld0006-ld0194
 agrid_pssp_sm=ld0006-ld0074
 basis=aug-cc-pvtz
 basis_sm=def2-svp
 basopt=off
 bfbasis=none
 bfgsmem=10
 bfgstol=1.0d-3
 boysalg=jacobi
 bpcompo=0.985
 bpcompv=0.98
 bpdfo=0.985
 bpocc=0.985
 bppdo=0.985
 bppdv=0.98
 bpedo=0.985
 bpedv=0.98
 calc=mp2
 ccmaxit=50
 ccprog=mrcc
 ccsdalg=disk
 ccsdmkl=seq
 ccsdrest=off
 ccsdthreads=2
 cctol=6
 charge=0
 cialg=disk
 ciguess=off
 cmpgrp=auto
 comprest=off
 coord_sys=ric
 core=frozen
 corembed=off
 csapprox=off
 cvs=off
 dboc=off
 delocsomofact=
 dendec=cholesky
 dens=0
 denscorr=0
 dfalg=lineq
 dfbasis_cab=none
 dfbasis_cor=auto
 dfbasis_scf=auto
 dfbasis_scf_sm=auto
 dfintran=drpa
 dft=off
 dhexc=adc(2)
 diag=david
 docc=
 domrad=10.d0
 drpaalg=fit
 dual=off
 dual_df=off
 ecp=auto
 edisp=off
 edisp_embed=off
 embed=off
 epairestfact=off
 epairscale=1.d0
 etemp=300
 epert=none
 eps=
 espcharge=off
 excrad=1.0
 excrad_fin=0.100000000D-02
 fitting=coulomb
 fmm=off
 fmmord=8
 fnonorb=
 freq=off
 gamma=1.1d0
 gauss=spher
 geom=xyz
 gopt=off
 ghost=serialno
 gtol=7
 grdens=off
 grid=auto
 grid_sm=auto
 gridbatch_cos=2000
 grtol=10
 guido_ct=off
 hamilton=dc
 iface=none
 intalg=auto
 ip_ea=off
 itol=12
 laptol=1.d-2
 lccoporder=trffirst
 lcorthr=normal
 lccrest=off
 ldfgrad_tol=8
 lmp2dens=on
 lnoepso=0.d0
 lnoepsv=1e-6
 localcc=off
 localcorrsymm=off
 locintrf=disk
 mact=
 maxact=off
 maxdim=200
 maxex=0
 maxmicroit=100
 mcscfiguess=hf
 mem=46gb
 mmprog=
 molden=on
 mpitasks=1
 mulmet=0
 mult=1
 nab=off
 nacto=0
 nactv=0
 naf_amp=3.16d-3
 naf_cor=off
 naf_f12=off
 naf_scf=off
 nafalg=albe
 nafdens=off
 naftyp=
 nchol=auto
 ndeps=1e-3
 nstate=1
 nsing=0
 nto=off
 ntrip=0
 num_grad=off
 occ=
 occri=off
 oniom=off
 oniom_eechg=off
 oniom_pcm=off
 oniom_qcorr=off
 optalg=
 optmaxit=50
 optetol=1e-6
 optex=0
 optgtol=1e-4
 optstol=1e-3
 orblocc=off
 orbloce=off
 orbloco=off
 orblocv=off
 orblocguess=cholesky
 osveps=1e-3
 ovirt=off
 ovltol=1e-7
 ovosnorb=80.0
 pao_subsys_tol=1e-3
 pcm=off
 popul=off
 pressure=100000
 pssp=off
 ptfreq=0.0
 ptthreads=2
 qmreg=
 qmmm=off
 qro=off
 qscf=off
 redcost_exc=off
 redcost_tddft=off
 refdet=none
 rest=0
 rgrid=log3
 rism=off
 rohfcore=semicanonical
 rohftype=semicanonical
 scfalg=locfit1
 scf_conv=auto
 scfdamp=0.0d0
 scfdamp_mode=off
 scfdamp_end=200
 scfdamp_dampstep=0.d0
 scfdamp_dtol=0.0d0
 scfdamp_maxfact=0.0d0
 scfdamp_minfact=0.0d0
 scfdiis=on
 scfdiis_dtol=0.0d0
 scfdiis_end=200
 scfdiis_start=2
 scfdiis_step=1
 scfdiis_watch=off
 scfdiis_wrange=10
 scfdiis_wlimit=5
 scfdiis_delmax=2
 scfdtol=9
 scfext=10
 scfguessdens=
 scfiguess=small
 scfloc=pm
 scflshift=0.20
 scflshift_end=8
 scflshift_dtol=0.0
 scflshift_gaptol=0.20
 scfmaxit=200
 scftype=
 scftol=8
 scspe=1.d0
 scsph=1.d0
 scsps=1.2d0
 scsps_t=1.2d0
 scspt=0.33333333333333
 scspt_t=0.33333333333333
 scspv=1.d0
 spairtol=1e-4
 sqmprog=
 subminp=top
 symm=0
 talg=occ
 temp=298.15
 test=off
 theodore=off
 tlmo=0.999
 tpao=0.94
 tprint=off
 uncontract=off
 unit=angs
 usedisk=2
 verbosity=3
 wpairtol=0.100000000E-05
 
 Calculating integrals for small-basis SCF...

 ************************ 2026-02-26 20:21:58 *************************
 Executing integ...

 Allocation of 46.0 Gbytes of memory...
 
 
 Number of atoms:                 12
 Charge:                           0
 Number of electrons:             20
 Number of core electrons:         4
 Spin multiplicity:                1
 
                 Cartesian coordinates [bohr]      Atomic mass [AMU]  Z
   1  N     2.87343284    7.72109067    6.82187243     0.000000       0
   2  H     3.84121308    6.17673805    7.48629888     0.000000       0
   3  H     1.32897883    7.05658759    5.85414160     0.000000       0
   4  H     2.20884945    8.68876012    8.36643752     0.000000       0
   5  N     6.82182577   12.56870435    7.72099687    14.003074       7
   6  H     8.36625160   11.90420748    8.68871146     1.007825       1
   7  H     7.48639849   13.53638789    6.17641118     1.007825       1
   8  H     5.85401804   11.02435588    7.05654762     1.007825       1
   9  N     7.72105127   16.51701190   12.56860613    14.003074       7
  10  H     7.05646455   15.54933707   11.02403942     1.007825       1
  11  H     8.68882825   18.06135713   11.90418158     1.007825       1
  12  H     6.17659278   17.18151205   13.53633668     1.007825       1
 
 This molecule is an asymmetric top.
 
 Point group: C1  
 Computational point group: C1  
 
 Cartesian coordinates in standard orientation [bohr]
   1  N     7.58058587   -3.43646955    0.06128417
   2  H     7.98909845   -3.70930960   -1.81535162
   3  H     9.04987333   -4.18612322    1.08237144
   4  H     6.00472582   -4.49386195    0.46417745
   5  N     2.69699825    0.56953176    0.05054236
   6  H     2.15539950    0.83965865   -1.79254771
   7  H     2.92195557    2.32522397    0.84474154
   8  H     4.44448895   -0.27206848    0.01674702
   9  N    -3.55673790   -0.30252877   -0.11483350
  10  H    -1.68172781   -0.18813478    0.36994234
  11  H    -4.40086626    1.34351432    0.46915615
  12  H    -4.33082746   -1.74434610    0.92697407
 
 Nuclear repulsion energy [au]:         39.169477783971
 
Warning: for H atoms in the case of dfbasis_scf=auto the AO basis is set as dfbasis_scf instead of def2-qzvp(pd)-ri-jk because the AO basis is larger. Set the dfbasis_scf=def2-qzvp(pd)-ri-jk in MINP if that is desired.
 
 
 Basis set information:
 
 Maximum angular momentum: g
 Maximum number of contracted Gaussians:   10
 Maximum number of primitive Gaussians:    14
 Spherical harmonic GTOs are used.
 
 
 Conventional basis set:
 
   1  N  def2-svp [ 7s 4p 1d | 3s 2p 1d ]
   2  H  def2-svp [ 4s 1p | 2s 1p ]
   3  H  def2-svp [ 4s 1p | 2s 1p ]
   4  H  def2-svp [ 4s 1p | 2s 1p ]
   5  N  def2-svp [ 7s 4p 1d | 3s 2p 1d ]
   6  H  def2-svp [ 4s 1p | 2s 1p ]
   7  H  def2-svp [ 4s 1p | 2s 1p ]
   8  H  def2-svp [ 4s 1p | 2s 1p ]
   9  N  def2-svp [ 7s 4p 1d | 3s 2p 1d ]
  10  H  def2-svp [ 4s 1p | 2s 1p ]
  11  H  def2-svp [ 4s 1p | 2s 1p ]
  12  H  def2-svp [ 4s 1p | 2s 1p ]
 
 Basis functions:
            1             2             3             4             5             6             7             8             9            10
    0    1N1s          1N2s          1N3s          1N1pz         1N1py         1N1px         1N2pz         1N2py         1N2px         1N1d-2    
    1    1N1d-1        1N1d0         1N1d+1        1N1d+2        2H1s          2H2s          2H1pz         2H1py         2H1px         3H1s      
    2    3H2s          3H1pz         3H1py         3H1px         4H1s          4H2s          4H1pz         4H1py         4H1px         5N1s      
    3    5N2s          5N3s          5N1pz         5N1py         5N1px         5N2pz         5N2py         5N2px         5N1d-2        5N1d-1    
    4    5N1d0         5N1d+1        5N1d+2        6H1s          6H2s          6H1pz         6H1py         6H1px         7H1s          7H2s      
    5    7H1pz         7H1py         7H1px         8H1s          8H2s          8H1pz         8H1py         8H1px         9N1s          9N2s      
    6    9N3s          9N1pz         9N1py         9N1px         9N2pz         9N2py         9N2px         9N1d-2        9N1d-1        9N1d0     
    7    9N1d+1        9N1d+2       10H1s         10H2s         10H1pz        10H1py        10H1px        11H1s         11H2s         11H1pz     
    8   11H1py        11H1px        12H1s         12H2s         12H1pz        12H1py        12H1px     
 
 Maximum number of basis functions per shell:    6
 Total number of basis functions:     87
 
 
 Fitting basis set for the SCF calculation:
 
   1  N  def2-qzvpp-ri-jk [ 14s 10p 6d 2f 1g | 10s 8p 4d 2f 1g ]
   2  H  def2-qzvpp [ 7s 3p 2d 1f | 4s 3p 2d 1f ]
   3  H  def2-qzvpp [ 7s 3p 2d 1f | 4s 3p 2d 1f ]
   4  H  def2-qzvpp [ 7s 3p 2d 1f | 4s 3p 2d 1f ]
   5  N  def2-qzvpp-ri-jk [ 14s 10p 6d 2f 1g | 10s 8p 4d 2f 1g ]
   6  H  def2-qzvpp [ 7s 3p 2d 1f | 4s 3p 2d 1f ]
   7  H  def2-qzvpp [ 7s 3p 2d 1f | 4s 3p 2d 1f ]
   8  H  def2-qzvpp [ 7s 3p 2d 1f | 4s 3p 2d 1f ]
   9  N  def2-qzvpp-ri-jk [ 14s 10p 6d 2f 1g | 10s 8p 4d 2f 1g ]
  10  H  def2-qzvpp [ 7s 3p 2d 1f | 4s 3p 2d 1f ]
  11  H  def2-qzvpp [ 7s 3p 2d 1f | 4s 3p 2d 1f ]
  12  H  def2-qzvpp [ 7s 3p 2d 1f | 4s 3p 2d 1f ]
 
 Basis functions:
            1             2             3             4             5             6             7             8             9            10
    0    1N1s          1N2s          1N3s          1N4s          1N5s          1N6s          1N7s          1N8s          1N9s          1N10s     
    1    1N1pz         1N1py         1N1px         1N2pz         1N2py         1N2px         1N3pz         1N3py         1N3px         1N4pz     
    2    1N4py         1N4px         1N5pz         1N5py         1N5px         1N6pz         1N6py         1N6px         1N7pz         1N7py     
    3    1N7px         1N8pz         1N8py         1N8px         1N1d-2        1N1d-1        1N1d0         1N1d+1        1N1d+2        1N2d-2    
    4    1N2d-1        1N2d0         1N2d+1        1N2d+2        1N3d-2        1N3d-1        1N3d0         1N3d+1        1N3d+2        1N4d-2    
    5    1N4d-1        1N4d0         1N4d+1        1N4d+2        1N1f-3        1N1f-2        1N1f-1        1N1f0         1N1f+1        1N1f+2    
    6    1N1f+3        1N2f-3        1N2f-2        1N2f-1        1N2f0         1N2f+1        1N2f+2        1N2f+3        1N1g-4        1N1g-3    
    7    1N1g-2        1N1g-1        1N1g0         1N1g+1        1N1g+2        1N1g+3        1N1g+4        2H1s          2H2s          2H3s      
    8    2H4s          2H1pz         2H1py         2H1px         2H2pz         2H2py         2H2px         2H3pz         2H3py         2H3px     
    9    2H1d-2        2H1d-1        2H1d0         2H1d+1        2H1d+2        2H2d-2        2H2d-1        2H2d0         2H2d+1        2H2d+2    
   10    2H1f-3        2H1f-2        2H1f-1        2H1f0         2H1f+1        2H1f+2        2H1f+3        3H1s          3H2s          3H3s      
   11    3H4s          3H1pz         3H1py         3H1px         3H2pz         3H2py         3H2px         3H3pz         3H3py         3H3px     
   12    3H1d-2        3H1d-1        3H1d0         3H1d+1        3H1d+2        3H2d-2        3H2d-1        3H2d0         3H2d+1        3H2d+2    
   13    3H1f-3        3H1f-2        3H1f-1        3H1f0         3H1f+1        3H1f+2        3H1f+3        4H1s          4H2s          4H3s      
   14    4H4s          4H1pz         4H1py         4H1px         4H2pz         4H2py         4H2px         4H3pz         4H3py         4H3px     
   15    4H1d-2        4H1d-1        4H1d0         4H1d+1        4H1d+2        4H2d-2        4H2d-1        4H2d0         4H2d+1        4H2d+2    
   16    4H1f-3        4H1f-2        4H1f-1        4H1f0         4H1f+1        4H1f+2        4H1f+3        5N1s          5N2s          5N3s      
   17    5N4s          5N5s          5N6s          5N7s          5N8s          5N9s          5N10s         5N1pz         5N1py         5N1px     
   18    5N2pz         5N2py         5N2px         5N3pz         5N3py         5N3px         5N4pz         5N4py         5N4px         5N5pz     
   19    5N5py         5N5px         5N6pz         5N6py         5N6px         5N7pz         5N7py         5N7px         5N8pz         5N8py     
   20    5N8px         5N1d-2        5N1d-1        5N1d0         5N1d+1        5N1d+2        5N2d-2        5N2d-1        5N2d0         5N2d+1    
   21    5N2d+2        5N3d-2        5N3d-1        5N3d0         5N3d+1        5N3d+2        5N4d-2        5N4d-1        5N4d0         5N4d+1    
   22    5N4d+2        5N1f-3        5N1f-2        5N1f-1        5N1f0         5N1f+1        5N1f+2        5N1f+3        5N2f-3        5N2f-2    
   23    5N2f-1        5N2f0         5N2f+1        5N2f+2        5N2f+3        5N1g-4        5N1g-3        5N1g-2        5N1g-1        5N1g0     
   24    5N1g+1        5N1g+2        5N1g+3        5N1g+4        6H1s          6H2s          6H3s          6H4s          6H1pz         6H1py     
   25    6H1px         6H2pz         6H2py         6H2px         6H3pz         6H3py         6H3px         6H1d-2        6H1d-1        6H1d0     
   26    6H1d+1        6H1d+2        6H2d-2        6H2d-1        6H2d0         6H2d+1        6H2d+2        6H1f-3        6H1f-2        6H1f-1    
   27    6H1f0         6H1f+1        6H1f+2        6H1f+3        7H1s          7H2s          7H3s          7H4s          7H1pz         7H1py     
   28    7H1px         7H2pz         7H2py         7H2px         7H3pz         7H3py         7H3px         7H1d-2        7H1d-1        7H1d0     
   29    7H1d+1        7H1d+2        7H2d-2        7H2d-1        7H2d0         7H2d+1        7H2d+2        7H1f-3        7H1f-2        7H1f-1    
   30    7H1f0         7H1f+1        7H1f+2        7H1f+3        8H1s          8H2s          8H3s          8H4s          8H1pz         8H1py     
   31    8H1px         8H2pz         8H2py         8H2px         8H3pz         8H3py         8H3px         8H1d-2        8H1d-1        8H1d0     
   32    8H1d+1        8H1d+2        8H2d-2        8H2d-1        8H2d0         8H2d+1        8H2d+2        8H1f-3        8H1f-2        8H1f-1    
   33    8H1f0         8H1f+1        8H1f+2        8H1f+3        9N1s          9N2s          9N3s          9N4s          9N5s          9N6s      
   34    9N7s          9N8s          9N9s          9N10s         9N1pz         9N1py         9N1px         9N2pz         9N2py         9N2px     
   35    9N3pz         9N3py         9N3px         9N4pz         9N4py         9N4px         9N5pz         9N5py         9N5px         9N6pz     
   36    9N6py         9N6px         9N7pz         9N7py         9N7px         9N8pz         9N8py         9N8px         9N1d-2        9N1d-1    
   37    9N1d0         9N1d+1        9N1d+2        9N2d-2        9N2d-1        9N2d0         9N2d+1        9N2d+2        9N3d-2        9N3d-1    
   38    9N3d0         9N3d+1        9N3d+2        9N4d-2        9N4d-1        9N4d0         9N4d+1        9N4d+2        9N1f-3        9N1f-2    
   39    9N1f-1        9N1f0         9N1f+1        9N1f+2        9N1f+3        9N2f-3        9N2f-2        9N2f-1        9N2f0         9N2f+1    
   40    9N2f+2        9N2f+3        9N1g-4        9N1g-3        9N1g-2        9N1g-1        9N1g0         9N1g+1        9N1g+2        9N1g+3    
   41    9N1g+4       10H1s         10H2s         10H3s         10H4s         10H1pz        10H1py        10H1px        10H2pz        10H2py     
   42   10H2px        10H3pz        10H3py        10H3px        10H1d-2       10H1d-1       10H1d0        10H1d+1       10H1d+2       10H2d-2    
   43   10H2d-1       10H2d0        10H2d+1       10H2d+2       10H1f-3       10H1f-2       10H1f-1       10H1f0        10H1f+1       10H1f+2    
   44   10H1f+3       11H1s         11H2s         11H3s         11H4s         11H1pz        11H1py        11H1px        11H2pz        11H2py     
   45   11H2px        11H3pz        11H3py        11H3px        11H1d-2       11H1d-1       11H1d0        11H1d+1       11H1d+2       11H2d-2    
   46   11H2d-1       11H2d0        11H2d+1       11H2d+2       11H1f-3       11H1f-2       11H1f-1       11H1f0        11H1f+1       11H1f+2    
   47   11H1f+3       12H1s         12H2s         12H3s         12H4s         12H1pz        12H1py        12H1px        12H2pz        12H2py     
   48   12H2px        12H3pz        12H3py        12H3px        12H1d-2       12H1d-1       12H1d0        12H1d+1       12H1d+2       12H2d-2    
   49   12H2d-1       12H2d0        12H2d+1       12H2d+2       12H1f-3       12H1f-2       12H1f-1       12H1f0        12H1f+1       12H1f+2    
   50   12H1f+3    
 
 Maximum number of basis functions per shell:   24
 Total number of basis functions:    501
 
 
 Initializing the SAD routines for the initial guess...
 Checking the files required for the initial guess...
 Atomic density files have been found for the atoms with the following serial numbers:
  
 Atomic density files have not been found for the atoms with the following serial numbers:
  5 6 7 8 9 10 11 12
 Generating SCFDENSITIES.N.def2-svp.0
 Generating SCFDENSITIES.H.def2-svp.0
 CPU time [min]:     0.213                   Wall time [min]:     0.135
 
 Character table for point group C1:
 
          E  
    A     1
 
 Number of basis functions per irrep:
    A      87
 
 
 Calculation of overlap integrals...
 CPU time [min]:     0.218                   Wall time [min]:     0.136
 
 Calculation of the square root of the overlap matrix...
 Minimum eigenvalue of the overlap matrix: 0.231956E-01
 CPU time [min]:     0.232                   Wall time [min]:     0.136
 
 Calculation of kinetic energy integrals...
 CPU time [min]:     0.233                   Wall time [min]:     0.136
 Calculation of dipole moment integrals...
 CPU time [min]:     0.234                   Wall time [min]:     0.136
 Calculation of nuclear attraction integrals...
 CPU time [min]:     0.235                   Wall time [min]:     0.136
 
 Calculation of prescreening integrals...
 CPU time [min]:     0.254                   Wall time [min]:     0.136
 
 Calculation of two-center Coulomb integrals...
   1% done.
  13% done.
  24% done.
  35% done.
  47% done.
  60% done.
  72% done.
  86% done.
  97% done.
 100% done.
 CPU time [min]:     0.266                   Wall time [min]:     0.137
 
 Cholesky decomposition of the two-center matrix...
 Reciprocal of the condition number:  0.794534E-05
 CPU time [min]:     0.292                   Wall time [min]:     0.137
 
 
 Running small-basis SCF...

 ************************ 2026-02-26 20:22:06 *************************
 Executing scf...

 @scfsetup: integrals calculated directly
            mrcc/integ direct run
 @scfsetup: calculating on full matrices
            not using symmetry adapted basis
 @scfsetup: diis switched on
 @scfsetup: number of steps to extrapolate from  10
 @scfsetup: tolerance in energy deviation    0.100000E-07
            tolerance in density deviation    0.100000E-08
 @scfsetup: maximum number of iterations: 200
 @scfsetup: restricted closed shell hf calc
 @scfsetup: starting scf from superposition of atomic densities
 @scfsetup: occupation set:
            from initial orbitals
 @scfsetup: Parameter-set for SCF acceleration: normal
 @scfsetup: diis runs from iteration:   2
 @scfsetup: diis runs to iteration: 200
 @scfsetup: diis runs in every iteration
 @scfsetup: diiswatch is disabled                   
 @scfsetup: diis dtol criteria to switch on:      0.0000E+00
           (or the iteration number below is reached)
 @scfsetup: static damping scheme
            iteration step criteria to turn damping off: 3
 @scfsetup: dynamic level shifting
            tolarance in HOMO-LUMO gap:  0.200
            tolarance in density deviation:     0.0000E+00
            iteration step criteria to turn level shifting off: 8
 Allocation of 46.0 Gbytes of memory...
 ======================================================================
 ITERATION STEP   1
 CPU time [min]:     0.043                   Wall time [min]:     0.009
 

 SCF control                  : initial
 Damping factor/level shift   : 0.000/0.200
 DIIS [start/end/frequency]   :   2 /200 /  1

 Constructing Fock-matrix...
 
 Pipek-Mezey localization...
 Step  Convergence
   1   4.308583969676
   2   1.530654086555
   3   0.334500631320
   4   0.006548462124
   5   0.000007084034
   6   0.000000014918
   7   0.000000000039
 CPU time [min]:     0.070                   Wall time [min]:     0.009
 
 Constructing local fitting domains...
 Maximum number of atoms in fitting domains:    8
 Average number of atoms in fitting domains:    5.1
 
 First step of Coulomb + first step of exchange...
 Exchange contribution is evaluated for MOs 1 to 10.
   1% done.
  14% done.
  25% done.
  37% done.
  49% done.
  60% done.
  72% done.
  83% done.
 100% done.
 Fitting and assembly step of exchange...
 CPU time [min]:     0.186                   Wall time [min]:     0.011
 
 Second step of Coulomb...
   1% done.
  14% done.
  25% done.
  37% done.
  49% done.
  60% done.
  72% done.
  83% done.
 100% done.
 CPU time [min]:     0.211                   Wall time [min]:     0.011
 
 Gradient norm:      2.4416E+00
 RMS of [F,P]:                                         0.03536189108727
 RMS of difference density:                            0.01294763031963
 Gap [au]:  0.62081898
 ALPHA OCC:  10
 BETA  OCC:  10
 
 ***HARTREE-FOCK ENERGY IN STEP   1 IS       -111.7253933943372317 [AU]
 ======================================================================
 ITERATION STEP   2
 CPU time [min]:     0.224                   Wall time [min]:     0.012
 

 SCF control                  : diis
 Damping factor/level shift   : 0.000/0.000
 DIIS [start/end/frequency]   :   2 /200 /  1

 Constructing Fock-matrix...
 
 Pipek-Mezey localization...
 Step  Convergence
   1   0.090221752600
   2   0.094851524881
   3   0.013322312814
   4   0.000004528256
   5   0.000000020065
   6   0.000000000070
 CPU time [min]:     0.247                   Wall time [min]:     0.012
 
 Constructing local fitting domains...
 Maximum number of atoms in fitting domains:    8
 Average number of atoms in fitting domains:    5.1
 
 First step of Coulomb + first step of exchange...
 Exchange contribution is evaluated for MOs 1 to 10.
   1% done.
  14% done.
  25% done.
  37% done.
  49% done.
  60% done.
  72% done.
  83% done.
 100% done.
 Fitting and assembly step of exchange...
 CPU time [min]:     0.350                   Wall time [min]:     0.014
 
 Second step of Coulomb...
   1% done.
  14% done.
  25% done.
  37% done.
  49% done.
  60% done.
  72% done.
  83% done.
 100% done.
 CPU time [min]:     0.375                   Wall time [min]:     0.014
 
 Gradient norm:      2.5457E-01
 DIIS is running in this iteration step.
 RMS of [F,P]:                                         0.00752310048571
 RMS of difference density:                            0.00612704344652
 Gap [au]:  0.45618513
 ALPHA OCC:  10
 BETA  OCC:  10
 
 ***HARTREE-FOCK ENERGY IN STEP   2 IS       -112.2513052584734652 [AU]
 
 Step comparison  Energy Drift [au]  DIIS error drift  Gradient drift
        1            5.2591E-01         2.7839E-02       2.1871E+00
        2            1.1225E+02         1.0000E-09       2.1871E+00
 ======================================================================
 ITERATION STEP   3
 CPU time [min]:     0.392                   Wall time [min]:     0.014
 

 SCF control                  : diis
 Damping factor/level shift   : 0.000/0.000
 DIIS [start/end/frequency]   :   2 /200 /  1

 Constructing Fock-matrix...
 
 Pipek-Mezey localization...
 Step  Convergence
   1   0.080322839778
   2   0.079359083711
   3   0.000521944134
   4   0.000000324382
   5   0.000000000879
 CPU time [min]:     0.416                   Wall time [min]:     0.015
 
 Constructing local fitting domains...
 Local fitting domains are unchanged.
 
 First step of Coulomb + first step of exchange...
 Exchange contribution is evaluated for MOs 1 to 10.
   1% done.
  14% done.
  25% done.
  37% done.
  49% done.
  60% done.
  72% done.
  83% done.
 100% done.
 Fitting and assembly step of exchange...
 CPU time [min]:     0.508                   Wall time [min]:     0.016
 
 Second step of Coulomb...
   1% done.
  14% done.
  25% done.
  37% done.
  49% done.
  60% done.
  72% done.
  83% done.
 100% done.
 CPU time [min]:     0.533                   Wall time [min]:     0.017
 
 Gradient norm:      1.1600E-01
 DIIS is running in this iteration step.
 RMS of [F,P]:                                         0.00356974787069
 RMS of difference density:                            0.00181178801145
 Gap [au]:  0.51235870
 ALPHA OCC:  10
 BETA  OCC:  10
 
 ***HARTREE-FOCK ENERGY IN STEP   3 IS       -112.2894997016351653 [AU]
 
 Step comparison  Energy Drift [au]  DIIS error drift  Gradient drift
        2            3.8194E-02         3.9534E-03       1.3856E-01
 ======================================================================
 ITERATION STEP   4
 CPU time [min]:     0.548                   Wall time [min]:     0.017
 

 SCF control                  : diis
 Damping factor/level shift   : 0.000/0.000
 DIIS [start/end/frequency]   :   2 /200 /  1

 Constructing Fock-matrix...
 
 Pipek-Mezey localization...
 Step  Convergence
   1   0.080856337825
   2   0.079956831056
   3   0.000246988569
   4   0.000000084151
   5   0.000000000066
 CPU time [min]:     0.571                   Wall time [min]:     0.017
 
 Constructing local fitting domains...
 Local fitting domains are unchanged.
 
 First step of Coulomb + first step of exchange...
 Exchange contribution is evaluated for MOs 1 to 10.
   1% done.
  14% done.
  25% done.
  37% done.
  49% done.
  60% done.
  72% done.
  83% done.
 100% done.
 Fitting and assembly step of exchange...
 CPU time [min]:     0.663                   Wall time [min]:     0.019
 
 Second step of Coulomb...
   1% done.
  14% done.
  25% done.
  37% done.
  49% done.
  60% done.
  72% done.
  83% done.
 100% done.
 CPU time [min]:     0.688                   Wall time [min]:     0.019
 
 Gradient norm:      2.2721E-02
 DIIS is running in this iteration step.
 RMS of [F,P]:                                         0.00045192250834
 RMS of difference density:                            0.00050585751517
 Gap [au]:  0.50428978
 ALPHA OCC:  10
 BETA  OCC:  10
 
 ***HARTREE-FOCK ENERGY IN STEP   4 IS       -112.2997720549533653 [AU]
 
 Step comparison  Energy Drift [au]  DIIS error drift  Gradient drift
        3            1.0272E-02         3.1178E-03       9.3283E-02
 ======================================================================
 ITERATION STEP   5
 CPU time [min]:     0.703                   Wall time [min]:     0.020
 

 SCF control                  : diis
 Damping factor/level shift   : 0.000/0.000
 DIIS [start/end/frequency]   :   2 /200 /  1

 Constructing Fock-matrix...
 
 Pipek-Mezey localization...
 Step  Convergence
   1   0.116606254313
   2   0.113433599867
   3   0.000387767163
   4   0.000000117863
   5   0.000000000269
 CPU time [min]:     0.727                   Wall time [min]:     0.020
 
 Constructing local fitting domains...
 Local fitting domains are unchanged.
 
 First step of Coulomb + first step of exchange...
 Exchange contribution is evaluated for MOs 1 to 10.
   1% done.
  14% done.
  25% done.
  37% done.
  49% done.
  60% done.
  72% done.
  83% done.
 100% done.
 Fitting and assembly step of exchange...
 CPU time [min]:     0.818                   Wall time [min]:     0.021
 
 Second step of Coulomb...
   1% done.
  14% done.
  25% done.
  37% done.
  49% done.
  60% done.
  72% done.
  83% done.
 100% done.
 CPU time [min]:     0.843                   Wall time [min]:     0.022
 
 Gradient norm:      2.4776E-03
 DIIS is running in this iteration step.
 RMS of [F,P]:                                         0.00008010157180
 RMS of difference density:                            0.00008083127314
 Gap [au]:  0.50392236
 ALPHA OCC:  10
 BETA  OCC:  10
 
 ***HARTREE-FOCK ENERGY IN STEP   5 IS       -112.3001067187819757 [AU]
 
 Step comparison  Energy Drift [au]  DIIS error drift  Gradient drift
        4            3.3466E-04         3.7182E-04       2.0244E-02
 ======================================================================
 ITERATION STEP   6
 CPU time [min]:     0.860                   Wall time [min]:     0.022
 

 SCF control                  : diis
 Damping factor/level shift   : 0.000/0.000
 DIIS [start/end/frequency]   :   2 /200 /  1

 Constructing Fock-matrix...
 
 Pipek-Mezey localization...
 Step  Convergence
   1   0.096684931684
   2   0.094614063915
   3   0.000128111391
   4   0.000000035917
   5   0.000000000080
 CPU time [min]:     0.883                   Wall time [min]:     0.023
 
 Constructing local fitting domains...
 Local fitting domains are unchanged.
 
 First step of Coulomb + first step of exchange...
 Exchange contribution is evaluated for MOs 1 to 10.
   1% done.
  14% done.
  25% done.
  37% done.
  49% done.
  60% done.
  72% done.
  83% done.
 100% done.
 Fitting and assembly step of exchange...
 CPU time [min]:     0.974                   Wall time [min]:     0.024
 
 Second step of Coulomb...
   1% done.
  14% done.
  25% done.
  37% done.
  49% done.
  60% done.
  72% done.
  83% done.
 100% done.
 CPU time [min]:     1.000                   Wall time [min]:     0.024
 
 Gradient norm:      6.0791E-04
 DIIS is running in this iteration step.
 RMS of [F,P]:                                         0.00001449399859
 RMS of difference density:                            0.00001701292413
 Gap [au]:  0.50413249
 ALPHA OCC:  10
 BETA  OCC:  10
 
 ***HARTREE-FOCK ENERGY IN STEP   6 IS       -112.3001135189644373 [AU]
 
 Step comparison  Energy Drift [au]  DIIS error drift  Gradient drift
        5            6.8002E-06         6.5608E-05       1.8697E-03
 ======================================================================
 ITERATION STEP   7
 CPU time [min]:     1.016                   Wall time [min]:     0.025
 

 SCF control                  : diis
 Damping factor/level shift   : 0.000/0.000
 DIIS [start/end/frequency]   :   2 /200 /  1

 Constructing Fock-matrix...
 
 Pipek-Mezey localization...
 Step  Convergence
   1   0.148868520498
   2   0.145778659242
   3   0.002049093676
   4   0.000000549784
   5   0.000000000293
   6   0.000000000000
 CPU time [min]:     1.040                   Wall time [min]:     0.025
 
 Constructing local fitting domains...
 Local fitting domains are unchanged.
 
 First step of Coulomb + first step of exchange...
 Exchange contribution is evaluated for MOs 1 to 10.
   1% done.
  14% done.
  25% done.
  37% done.
  49% done.
  60% done.
  72% done.
  83% done.
 100% done.
 Fitting and assembly step of exchange...
 CPU time [min]:     1.131                   Wall time [min]:     0.027
 
 Second step of Coulomb...
   1% done.
  14% done.
  25% done.
  37% done.
  49% done.
  60% done.
  72% done.
  83% done.
 100% done.
 CPU time [min]:     1.156                   Wall time [min]:     0.027
 
 Gradient norm:      2.8353E-04
 DIIS is running in this iteration step.
 RMS of [F,P]:                                         0.00000583330149
 RMS of difference density:                            0.00000570306572
 Gap [au]:  0.50401446
 ALPHA OCC:  10
 BETA  OCC:  10
 
 ***HARTREE-FOCK ENERGY IN STEP   7 IS       -112.3001132191789111 [AU]
 
 Step comparison  Energy Drift [au]  DIIS error drift  Gradient drift
        6           -2.9979E-07         8.6607E-06       3.2438E-04
 Warning! The energy goes uphill (with respect to previous step).
 ======================================================================
 ITERATION STEP   8
 CPU time [min]:     1.173                   Wall time [min]:     0.027
 

 SCF control                  : diis
 Damping factor/level shift   : 0.000/0.000
 DIIS [start/end/frequency]   :   2 /200 /  1

 Constructing Fock-matrix...
 
 Pipek-Mezey localization...
 Step  Convergence
   1   0.132444955558
   2   0.131478827765
   3   0.000418708776
   4   0.000000316750
   5   0.000000000430
   6   0.000000000001
   7   0.000000000000
 CPU time [min]:     1.196                   Wall time [min]:     0.028
 
 Constructing local fitting domains...
 Local fitting domains are unchanged.
 
 First step of Coulomb + first step of exchange...
 Exchange contribution is evaluated for MOs 1 to 10.
   1% done.
  14% done.
  25% done.
  37% done.
  49% done.
  60% done.
  72% done.
  83% done.
 100% done.
 Fitting and assembly step of exchange...
 CPU time [min]:     1.288                   Wall time [min]:     0.029
 
 Second step of Coulomb...
   1% done.
  14% done.
  25% done.
  37% done.
  49% done.
  60% done.
  72% done.
  83% done.
 100% done.
 CPU time [min]:     1.313                   Wall time [min]:     0.030
 
 Gradient norm:      8.6629E-05
 DIIS is running in this iteration step.
 RMS of [F,P]:                                         0.00000144951022
 RMS of difference density:                            0.00000298452982
 Gap [au]:  0.50400273
 ALPHA OCC:  10
 BETA  OCC:  10
 
 ***HARTREE-FOCK ENERGY IN STEP   8 IS       -112.3001131003313162 [AU]
 
 Step comparison  Energy Drift [au]  DIIS error drift  Gradient drift
        7           -1.1885E-07         4.3838E-06       1.9690E-04
 Warning! The energy goes uphill (with respect to previous step).
 ======================================================================
 ITERATION STEP   9
 CPU time [min]:     1.330                   Wall time [min]:     0.030
 

 SCF control                  : diis
 Damping factor/level shift   : 0.000/0.000
 DIIS [start/end/frequency]   :   2 /200 /  1

 Constructing Fock-matrix...
 
 Pipek-Mezey localization...
 Step  Convergence
   1   0.135126801976
   2   0.128945024337
   3   0.000190103141
   4   0.000000141717
   5   0.000000000314
   6   0.000000000001
 CPU time [min]:     1.354                   Wall time [min]:     0.030
 
 Constructing local fitting domains...
 Local fitting domains are unchanged.
 
 First step of Coulomb + first step of exchange...
 Exchange contribution is evaluated for MOs 1 to 10.
   1% done.
  14% done.
  25% done.
  37% done.
  49% done.
  60% done.
  72% done.
  83% done.
 100% done.
 Fitting and assembly step of exchange...
 CPU time [min]:     1.445                   Wall time [min]:     0.032
 
 Second step of Coulomb...
   1% done.
  14% done.
  25% done.
  37% done.
  49% done.
  60% done.
  72% done.
  83% done.
 100% done.
 CPU time [min]:     1.471                   Wall time [min]:     0.032
 
 Gradient norm:      8.2454E-06
 DIIS is running in this iteration step.
 RMS of [F,P]:                                         0.00000020056084
 RMS of difference density:                            0.00000038506825
 Gap [au]:  0.50400051
 ALPHA OCC:  10
 BETA  OCC:  10
 
 ***HARTREE-FOCK ENERGY IN STEP   9 IS       -112.3001130301490349 [AU]
 
 Step comparison  Energy Drift [au]  DIIS error drift  Gradient drift
        8           -7.0182E-08         1.2489E-06       7.8383E-05
 Warning! The energy goes uphill (with respect to previous step).
 ======================================================================
 ITERATION STEP  10
 CPU time [min]:     1.487                   Wall time [min]:     0.033
 

 SCF control                  : diis
 Damping factor/level shift   : 0.000/0.000
 DIIS [start/end/frequency]   :   2 /200 /  1

 Constructing Fock-matrix...
 
 Pipek-Mezey localization...
 Step  Convergence
   1   0.111426801377
   2   0.107033744378
   3   0.000079357920
   4   0.000000025808
   5   0.000000000153
   6   0.000000000001
 CPU time [min]:     1.510                   Wall time [min]:     0.033
 
 Constructing local fitting domains...
 Local fitting domains are unchanged.
 
 First step of Coulomb + first step of exchange...
 Exchange contribution is evaluated for MOs 1 to 10.
   1% done.
  14% done.
  25% done.
  37% done.
  49% done.
  60% done.
  72% done.
  83% done.
 100% done.
 Fitting and assembly step of exchange...
 CPU time [min]:     1.602                   Wall time [min]:     0.034
 
 Second step of Coulomb...
   1% done.
  14% done.
  25% done.
  37% done.
  49% done.
  60% done.
  72% done.
  83% done.
 100% done.
 CPU time [min]:     1.627                   Wall time [min]:     0.035
 
 Gradient norm:      1.7191E-06
 DIIS is running in this iteration step.
 RMS of [F,P]:                                         0.00000004240463
 RMS of difference density:                            0.00000007991625
 Gap [au]:  0.50400082
 ALPHA OCC:  10
 BETA  OCC:  10
 
 ***HARTREE-FOCK ENERGY IN STEP  10 IS       -112.3001130335276514 [AU]
 
 Step comparison  Energy Drift [au]  DIIS error drift  Gradient drift
        9            3.3786E-09         1.5816E-07       6.5263E-06
 ======================================================================
 ITERATION STEP  11
 CPU time [min]:     1.643                   Wall time [min]:     0.035
 

 SCF control                  : diis
 Damping factor/level shift   : 0.000/0.000
 DIIS [start/end/frequency]   :   2 /200 /  1

 Constructing Fock-matrix...
 
 Pipek-Mezey localization...
 Step  Convergence
   1   0.109664197016
   2   0.106770005001
   3   0.000104346366
   4   0.000000026444
   5   0.000000000038
   6   0.000000000000
 CPU time [min]:     1.666                   Wall time [min]:     0.036
 
 Constructing local fitting domains...
 Local fitting domains are unchanged.
 
 First step of Coulomb + first step of exchange...
 Exchange contribution is evaluated for MOs 1 to 10.
   1% done.
  14% done.
  25% done.
  37% done.
  49% done.
  60% done.
  72% done.
  83% done.
 100% done.
 Fitting and assembly step of exchange...
 CPU time [min]:     1.757                   Wall time [min]:     0.037
 
 Second step of Coulomb...
   1% done.
  14% done.
  25% done.
  37% done.
  49% done.
  60% done.
  72% done.
  83% done.
 100% done.
 CPU time [min]:     1.782                   Wall time [min]:     0.037
 
 Gradient norm:      5.0611E-07
 DIIS is running in this iteration step.
 RMS of [F,P]:                                         0.00000001189936
 RMS of difference density:                            0.00000002858229
 Gap [au]:  0.50400094
 ALPHA OCC:  10
 BETA  OCC:  10
 
 ***HARTREE-FOCK ENERGY IN STEP  11 IS       -112.3001130353232355 [AU]
 
 Step comparison  Energy Drift [au]  DIIS error drift  Gradient drift
       10            1.7956E-09         3.0505E-08       1.2129E-06
 ======================================================================
 ITERATION STEP  12
 CPU time [min]:     1.798                   Wall time [min]:     0.038
 

 SCF control                  : diis
 Damping factor/level shift   : 0.000/0.000
 DIIS [start/end/frequency]   :   2 /200 /  1

 Constructing Fock-matrix...
 
 Pipek-Mezey localization...
 Step  Convergence
   1   0.119533120812
   2   0.117739955235
   3   0.000225601678
   4   0.000000183762
   5   0.000000000345
   6   0.000000000001
 CPU time [min]:     1.821                   Wall time [min]:     0.038
 
 Constructing local fitting domains...
 Local fitting domains are unchanged.
 
 First step of Coulomb + first step of exchange...
 Exchange contribution is evaluated for MOs 1 to 10.
   1% done.
  14% done.
  25% done.
  37% done.
  49% done.
  60% done.
  72% done.
  83% done.
 100% done.
 Fitting and assembly step of exchange...
 CPU time [min]:     1.913                   Wall time [min]:     0.040
 
 Second step of Coulomb...
   1% done.
  14% done.
  25% done.
  37% done.
  49% done.
  60% done.
  72% done.
  83% done.
 100% done.
 CPU time [min]:     1.938                   Wall time [min]:     0.040
 
 Gradient norm:      7.9653E-08
 DIIS is running in this iteration step.
 RMS of [F,P]:                                         0.00000000209979
 RMS of difference density:                            0.00000000439608
 Gap [au]:  0.50400096
 ALPHA OCC:  10
 BETA  OCC:  10
 
 ***HARTREE-FOCK ENERGY IN STEP  12 IS       -112.3001130358520641 [AU]
 
 Step comparison  Energy Drift [au]  DIIS error drift  Gradient drift
       11            5.2883E-10         9.7996E-09       4.2646E-07
 ======================================================================
 ITERATION STEP  13
 CPU time [min]:     1.952                   Wall time [min]:     0.040
 

 SCF control                  : diis
 Damping factor/level shift   : 0.000/0.000
 DIIS [start/end/frequency]   :   2 /200 /  1

 Constructing Fock-matrix...
 
 Pipek-Mezey localization...
 Step  Convergence
   1   0.130923599769
   2   0.123632343841
   3   0.000587540497
   4   0.000000047797
   5   0.000000000025
   6   0.000000000000
 CPU time [min]:     1.976                   Wall time [min]:     0.041
 
 Constructing local fitting domains...
 Local fitting domains are unchanged.
 
 First step of Coulomb + first step of exchange...
 Exchange contribution is evaluated for MOs 1 to 10.
   1% done.
  14% done.
  25% done.
  37% done.
  49% done.
  60% done.
  72% done.
  83% done.
 100% done.
 Fitting and assembly step of exchange...
 CPU time [min]:     2.070                   Wall time [min]:     0.042
 
 Second step of Coulomb...
   1% done.
  14% done.
  25% done.
  37% done.
  49% done.
  60% done.
  72% done.
  83% done.
 100% done.
 CPU time [min]:     2.096                   Wall time [min]:     0.043
 
 Gradient norm:      1.5229E-08
 DIIS is running in this iteration step.
 RMS of [F,P]:                                         0.00000000038025
 RMS of difference density:                            0.00000000062012
 Gap [au]:  0.50400096
 ALPHA OCC:  10
 BETA  OCC:  10
 
 ***HARTREE-FOCK ENERGY IN STEP  13 IS       -112.3001130357631041 [AU]
 
 Step comparison  Energy Drift [au]  DIIS error drift  Gradient drift
       12           -8.8960E-11         1.7195E-09       6.4424E-08
 Warning! The energy goes uphill (with respect to previous step).
 
 The SCF iteration has converged.
 An extra iteration will be performed to calculate accurate SCF energy.
 
 ======================================================================
 ITERATION STEP  14
 CPU time [min]:     2.112                   Wall time [min]:     0.043
 

 SCF control                  : diis
 Damping factor/level shift   : 0.000/0.000
 DIIS [start/end/frequency]   :   2 /200 /  1

 Constructing Fock-matrix...
 
 Pipek-Mezey localization...
 Step  Convergence
   1   0.109894574785
   2   0.108367122463
   3   0.000103976428
   4   0.000000023179
   5   0.000000000024
   6   0.000000000000
 CPU time [min]:     2.135                   Wall time [min]:     0.043
 
 Constructing local fitting domains...
 Maximum number of atoms in fitting domains:   12
 Average number of atoms in fitting domains:   10.8
 
 First step of Coulomb + first step of exchange...
 Exchange contribution is evaluated for MOs 1 to 10.
   1% done.
  14% done.
  25% done.
  37% done.
  49% done.
  60% done.
  72% done.
  83% done.
 100% done.
 Fitting and assembly step of exchange...
 CPU time [min]:     2.251                   Wall time [min]:     0.045
 
 Second step of Coulomb...
   1% done.
  14% done.
  25% done.
  37% done.
  49% done.
  60% done.
  72% done.
  83% done.
 100% done.
 CPU time [min]:     2.276                   Wall time [min]:     0.045
 
 Gradient norm:      8.0326E-05
 RMS of [F,P]:                                         0.00000228289103
 RMS of difference density:                            0.00000211196365
 Gap [au]:  0.50402762
 ALPHA OCC:  10
 BETA  OCC:  10
 
 ***HARTREE-FOCK ENERGY IN STEP  14 IS       -112.3003705517593005 [AU]
 
 Step comparison  Energy Drift [au]  DIIS error drift  Gradient drift
       13            2.5752E-04        -2.2825E-06      -8.0310E-05
 Warning! The DIIS error goes uphill (with respect to previous step).
 Warning! The DIIS error goes uphill (with respect to step  13 ).
 Warning! The gradient goes uphill (with respect to previous step).
 Warning! The gradient goes uphill (with respect to step  13 ).
 ======================================================================
 
 SUCCESS...
 THE SCF ITERATION HAS CONVERGED!
 
                   A   
 FINAL ALPHA OCC:  10
 FINAL BETA  OCC:  10
 
 ***FINAL HARTREE-FOCK ENERGY:       -112.3003705517593005 [AU]
 
 Orbital energies [au]:
      Irrep         Alpha          Beta
    1   A        -15.552827     -15.552827
    2   A        -15.516728     -15.516728
    3   A         -1.124303      -1.124303
    4   A         -1.090189      -1.090189
    5   A         -0.630480      -0.630480
    6   A         -0.627636      -0.627636
    7   A         -0.595691      -0.595691
    8   A         -0.591805      -0.591805
    9   A         -0.431479      -0.431479
   10   A         -0.398403      -0.398403
 
   11   A          0.105625       0.105625
   12   A          0.174893       0.174893
   13   A          0.211662       0.211662
   14   A          0.238213       0.238213
   15   A          0.249255       0.249255
   16   A          0.266877       0.266877
   17   A          0.282468       0.282468
   18   A          0.293737       0.293737
   19   A          0.365052       0.365052
   20   A          0.482705       0.482705
   21   A          0.641187       0.641187
   22   A          0.698528       0.698528
   23   A          0.712983       0.712983
   24   A          0.727457       0.727457
   25   A          0.751417       0.751417
   26   A          0.759604       0.759604
   27   A          0.789009       0.789009
   28   A          0.879980       0.879980
   29   A          0.906927       0.906927
   30   A          1.009211       1.009211
   31   A          1.050028       1.050028
   32   A          1.081803       1.081803
   33   A          1.105862       1.105862
   34   A          1.119175       1.119175
   35   A          1.142314       1.142314
   36   A          1.216016       1.216016
   37   A          1.308548       1.308548
   38   A          1.445460       1.445460
   39   A          1.460894       1.460894
   40   A          1.481387       1.481387
   41   A          1.531392       1.531392
   42   A          1.573652       1.573652
   43   A          1.587398       1.587398
   44   A          1.623216       1.623216
   45   A          1.783428       1.783428
   46   A          1.858641       1.858641
   47   A          1.887776       1.887776
   48   A          1.953668       1.953668
   49   A          1.960324       1.960324
   50   A          1.991041       1.991041
   51   A          2.002572       2.002572
   52   A          2.054973       2.054973
   53   A          2.079633       2.079633
   54   A          2.101278       2.101278
   55   A          2.167303       2.167303
   56   A          2.267044       2.267044
   57   A          2.372627       2.372627
   58   A          2.408040       2.408040
   59   A          2.438258       2.438258
   60   A          2.441097       2.441097
   61   A          2.460062       2.460062
   62   A          2.465148       2.465148
   63   A          2.480071       2.480071
   64   A          2.483206       2.483206
   65   A          2.558490       2.558490
   66   A          2.759658       2.759658
   67   A          2.788459       2.788459
   68   A          3.102008       3.102008
   69   A          3.143302       3.143302
   70   A          3.150286       3.150286
   71   A          3.179518       3.179518
   72   A          3.184297       3.184297
   73   A          3.256035       3.256035
   74   A          3.293795       3.293795
   75   A          3.677794       3.677794
   76   A          3.697033       3.697033
   77   A          3.722385       3.722385
   78   A          3.760250       3.760250
   79   A          4.009179       4.009179
   80   A          4.023873       4.023873
   81   A          4.061140       4.061140
   82   A          4.144501       4.144501
   83   A          4.145543       4.145543
   84   A          4.926058       4.926058
   85   A          6.037656       6.037656
   86   A          6.044194       6.044194
   87   A         26.623049      26.623049
 
 RETURNING FROM SCF ALGORITHM
 ======================================================================

 ************************ 2026-02-26 20:22:10 *************************
 Executing integ...

 Allocation of 46.0 Gbytes of memory...
 
 
 Number of atoms:                 12
 Charge:                           0
 Number of electrons:             20
 Number of core electrons:         4
 Spin multiplicity:                1
 
                 Cartesian coordinates [bohr]      Atomic mass [AMU]  Z
   1  N     2.87343284    7.72109067    6.82187243     0.000000       0
   2  H     3.84121308    6.17673805    7.48629888     0.000000       0
   3  H     1.32897883    7.05658759    5.85414160     0.000000       0
   4  H     2.20884945    8.68876012    8.36643752     0.000000       0
   5  N     6.82182577   12.56870435    7.72099687    14.003074       7
   6  H     8.36625160   11.90420748    8.68871146     1.007825       1
   7  H     7.48639849   13.53638789    6.17641118     1.007825       1
   8  H     5.85401804   11.02435588    7.05654762     1.007825       1
   9  N     7.72105127   16.51701190   12.56860613    14.003074       7
  10  H     7.05646455   15.54933707   11.02403942     1.007825       1
  11  H     8.68882825   18.06135713   11.90418158     1.007825       1
  12  H     6.17659278   17.18151205   13.53633668     1.007825       1
 
 This molecule is an asymmetric top.
 
 Point group: C1  
 Computational point group: C1  
 
 Cartesian coordinates in standard orientation [bohr]
   1  N     7.58058587   -3.43646955    0.06128417
   2  H     7.98909845   -3.70930960   -1.81535162
   3  H     9.04987333   -4.18612322    1.08237144
   4  H     6.00472582   -4.49386195    0.46417745
   5  N     2.69699825    0.56953176    0.05054236
   6  H     2.15539950    0.83965865   -1.79254771
   7  H     2.92195557    2.32522397    0.84474154
   8  H     4.44448895   -0.27206848    0.01674702
   9  N    -3.55673790   -0.30252877   -0.11483350
  10  H    -1.68172781   -0.18813478    0.36994234
  11  H    -4.40086626    1.34351432    0.46915615
  12  H    -4.33082746   -1.74434610    0.92697407
 
 Nuclear repulsion energy [au]:         39.169477783971
 
 
 Basis set information:
 
 Maximum angular momentum: g
 Maximum number of contracted Gaussians:   11
 Maximum number of primitive Gaussians:    14
 Spherical harmonic GTOs are used.
 
 
 Conventional basis set:
 
   1  N  aug-cc-pvtz [ 11s 6p 3d 2f | 5s 4p 3d 2f ]
   2  H  aug-cc-pvtz [ 6s 3p 2d | 4s 3p 2d ]
   3  H  aug-cc-pvtz [ 6s 3p 2d | 4s 3p 2d ]
   4  H  aug-cc-pvtz [ 6s 3p 2d | 4s 3p 2d ]
   5  N  aug-cc-pvtz [ 11s 6p 3d 2f | 5s 4p 3d 2f ]
   6  H  aug-cc-pvtz [ 6s 3p 2d | 4s 3p 2d ]
   7  H  aug-cc-pvtz [ 6s 3p 2d | 4s 3p 2d ]
   8  H  aug-cc-pvtz [ 6s 3p 2d | 4s 3p 2d ]
   9  N  aug-cc-pvtz [ 11s 6p 3d 2f | 5s 4p 3d 2f ]
  10  H  aug-cc-pvtz [ 6s 3p 2d | 4s 3p 2d ]
  11  H  aug-cc-pvtz [ 6s 3p 2d | 4s 3p 2d ]
  12  H  aug-cc-pvtz [ 6s 3p 2d | 4s 3p 2d ]
 
 Basis functions:
            1             2             3             4             5             6             7             8             9            10
    0    1N1s          1N2s          1N3s          1N4s          1N5s          1N1pz         1N1py         1N1px         1N2pz         1N2py     
    1    1N2px         1N3pz         1N3py         1N3px         1N4pz         1N4py         1N4px         1N1d-2        1N1d-1        1N1d0     
    2    1N1d+1        1N1d+2        1N2d-2        1N2d-1        1N2d0         1N2d+1        1N2d+2        1N3d-2        1N3d-1        1N3d0     
    3    1N3d+1        1N3d+2        1N1f-3        1N1f-2        1N1f-1        1N1f0         1N1f+1        1N1f+2        1N1f+3        1N2f-3    
    4    1N2f-2        1N2f-1        1N2f0         1N2f+1        1N2f+2        1N2f+3        2H1s          2H2s          2H3s          2H4s      
    5    2H1pz         2H1py         2H1px         2H2pz         2H2py         2H2px         2H3pz         2H3py         2H3px         2H1d-2    
    6    2H1d-1        2H1d0         2H1d+1        2H1d+2        2H2d-2        2H2d-1        2H2d0         2H2d+1        2H2d+2        3H1s      
    7    3H2s          3H3s          3H4s          3H1pz         3H1py         3H1px         3H2pz         3H2py         3H2px         3H3pz     
    8    3H3py         3H3px         3H1d-2        3H1d-1        3H1d0         3H1d+1        3H1d+2        3H2d-2        3H2d-1        3H2d0     
    9    3H2d+1        3H2d+2        4H1s          4H2s          4H3s          4H4s          4H1pz         4H1py         4H1px         4H2pz     
   10    4H2py         4H2px         4H3pz         4H3py         4H3px         4H1d-2        4H1d-1        4H1d0         4H1d+1        4H1d+2    
   11    4H2d-2        4H2d-1        4H2d0         4H2d+1        4H2d+2        5N1s          5N2s          5N3s          5N4s          5N5s      
   12    5N1pz         5N1py         5N1px         5N2pz         5N2py         5N2px         5N3pz         5N3py         5N3px         5N4pz     
   13    5N4py         5N4px         5N1d-2        5N1d-1        5N1d0         5N1d+1        5N1d+2        5N2d-2        5N2d-1        5N2d0     
   14    5N2d+1        5N2d+2        5N3d-2        5N3d-1        5N3d0         5N3d+1        5N3d+2        5N1f-3        5N1f-2        5N1f-1    
   15    5N1f0         5N1f+1        5N1f+2        5N1f+3        5N2f-3        5N2f-2        5N2f-1        5N2f0         5N2f+1        5N2f+2    
   16    5N2f+3        6H1s          6H2s          6H3s          6H4s          6H1pz         6H1py         6H1px         6H2pz         6H2py     
   17    6H2px         6H3pz         6H3py         6H3px         6H1d-2        6H1d-1        6H1d0         6H1d+1        6H1d+2        6H2d-2    
   18    6H2d-1        6H2d0         6H2d+1        6H2d+2        7H1s          7H2s          7H3s          7H4s          7H1pz         7H1py     
   19    7H1px         7H2pz         7H2py         7H2px         7H3pz         7H3py         7H3px         7H1d-2        7H1d-1        7H1d0     
   20    7H1d+1        7H1d+2        7H2d-2        7H2d-1        7H2d0         7H2d+1        7H2d+2        8H1s          8H2s          8H3s      
   21    8H4s          8H1pz         8H1py         8H1px         8H2pz         8H2py         8H2px         8H3pz         8H3py         8H3px     
   22    8H1d-2        8H1d-1        8H1d0         8H1d+1        8H1d+2        8H2d-2        8H2d-1        8H2d0         8H2d+1        8H2d+2    
   23    9N1s          9N2s          9N3s          9N4s          9N5s          9N1pz         9N1py         9N1px         9N2pz         9N2py     
   24    9N2px         9N3pz         9N3py         9N3px         9N4pz         9N4py         9N4px         9N1d-2        9N1d-1        9N1d0     
   25    9N1d+1        9N1d+2        9N2d-2        9N2d-1        9N2d0         9N2d+1        9N2d+2        9N3d-2        9N3d-1        9N3d0     
   26    9N3d+1        9N3d+2        9N1f-3        9N1f-2        9N1f-1        9N1f0         9N1f+1        9N1f+2        9N1f+3        9N2f-3    
   27    9N2f-2        9N2f-1        9N2f0         9N2f+1        9N2f+2        9N2f+3       10H1s         10H2s         10H3s         10H4s      
   28   10H1pz        10H1py        10H1px        10H2pz        10H2py        10H2px        10H3pz        10H3py        10H3px        10H1d-2    
   29   10H1d-1       10H1d0        10H1d+1       10H1d+2       10H2d-2       10H2d-1       10H2d0        10H2d+1       10H2d+2       11H1s      
   30   11H2s         11H3s         11H4s         11H1pz        11H1py        11H1px        11H2pz        11H2py        11H2px        11H3pz     
   31   11H3py        11H3px        11H1d-2       11H1d-1       11H1d0        11H1d+1       11H1d+2       11H2d-2       11H2d-1       11H2d0     
   32   11H2d+1       11H2d+2       12H1s         12H2s         12H3s         12H4s         12H1pz        12H1py        12H1px        12H2pz     
   33   12H2py        12H2px        12H3pz        12H3py        12H3px        12H1d-2       12H1d-1       12H1d0        12H1d+1       12H1d+2    
   34   12H2d-2       12H2d-1       12H2d0        12H2d+1       12H2d+2    
 
 Maximum number of basis functions per shell:   15
 Total number of basis functions:    345
 
 
 Fitting basis set for the SCF calculation:
 
   1  N  aug-cc-pvtz-ri-jk [ 11s 8p 6d 3f 2g | 11s 8p 6d 3f 2g ]
   2  H  aug-cc-pvtz-ri-jk [ 5s 4p 3d 2f | 5s 4p 3d 2f ]
   3  H  aug-cc-pvtz-ri-jk [ 5s 4p 3d 2f | 5s 4p 3d 2f ]
   4  H  aug-cc-pvtz-ri-jk [ 5s 4p 3d 2f | 5s 4p 3d 2f ]
   5  N  aug-cc-pvtz-ri-jk [ 11s 8p 6d 3f 2g | 11s 8p 6d 3f 2g ]
   6  H  aug-cc-pvtz-ri-jk [ 5s 4p 3d 2f | 5s 4p 3d 2f ]
   7  H  aug-cc-pvtz-ri-jk [ 5s 4p 3d 2f | 5s 4p 3d 2f ]
   8  H  aug-cc-pvtz-ri-jk [ 5s 4p 3d 2f | 5s 4p 3d 2f ]
   9  N  aug-cc-pvtz-ri-jk [ 11s 8p 6d 3f 2g | 11s 8p 6d 3f 2g ]
  10  H  aug-cc-pvtz-ri-jk [ 5s 4p 3d 2f | 5s 4p 3d 2f ]
  11  H  aug-cc-pvtz-ri-jk [ 5s 4p 3d 2f | 5s 4p 3d 2f ]
  12  H  aug-cc-pvtz-ri-jk [ 5s 4p 3d 2f | 5s 4p 3d 2f ]
 
 Basis functions:
            1             2             3             4             5             6             7             8             9            10
    0    1N1s          1N2s          1N3s          1N4s          1N5s          1N6s          1N7s          1N8s          1N9s          1N10s     
    1    1N11s         1N1pz         1N1py         1N1px         1N2pz         1N2py         1N2px         1N3pz         1N3py         1N3px     
    2    1N4pz         1N4py         1N4px         1N5pz         1N5py         1N5px         1N6pz         1N6py         1N6px         1N7pz     
    3    1N7py         1N7px         1N8pz         1N8py         1N8px         1N1d-2        1N1d-1        1N1d0         1N1d+1        1N1d+2    
    4    1N2d-2        1N2d-1        1N2d0         1N2d+1        1N2d+2        1N3d-2        1N3d-1        1N3d0         1N3d+1        1N3d+2    
    5    1N4d-2        1N4d-1        1N4d0         1N4d+1        1N4d+2        1N5d-2        1N5d-1        1N5d0         1N5d+1        1N5d+2    
    6    1N6d-2        1N6d-1        1N6d0         1N6d+1        1N6d+2        1N1f-3        1N1f-2        1N1f-1        1N1f0         1N1f+1    
    7    1N1f+2        1N1f+3        1N2f-3        1N2f-2        1N2f-1        1N2f0         1N2f+1        1N2f+2        1N2f+3        1N3f-3    
    8    1N3f-2        1N3f-1        1N3f0         1N3f+1        1N3f+2        1N3f+3        1N1g-4        1N1g-3        1N1g-2        1N1g-1    
    9    1N1g0         1N1g+1        1N1g+2        1N1g+3        1N1g+4        1N2g-4        1N2g-3        1N2g-2        1N2g-1        1N2g0     
   10    1N2g+1        1N2g+2        1N2g+3        1N2g+4        2H1s          2H2s          2H3s          2H4s          2H5s          2H1pz     
   11    2H1py         2H1px         2H2pz         2H2py         2H2px         2H3pz         2H3py         2H3px         2H4pz         2H4py     
   12    2H4px         2H1d-2        2H1d-1        2H1d0         2H1d+1        2H1d+2        2H2d-2        2H2d-1        2H2d0         2H2d+1    
   13    2H2d+2        2H3d-2        2H3d-1        2H3d0         2H3d+1        2H3d+2        2H1f-3        2H1f-2        2H1f-1        2H1f0     
   14    2H1f+1        2H1f+2        2H1f+3        2H2f-3        2H2f-2        2H2f-1        2H2f0         2H2f+1        2H2f+2        2H2f+3    
   15    3H1s          3H2s          3H3s          3H4s          3H5s          3H1pz         3H1py         3H1px         3H2pz         3H2py     
   16    3H2px         3H3pz         3H3py         3H3px         3H4pz         3H4py         3H4px         3H1d-2        3H1d-1        3H1d0     
   17    3H1d+1        3H1d+2        3H2d-2        3H2d-1        3H2d0         3H2d+1        3H2d+2        3H3d-2        3H3d-1        3H3d0     
   18    3H3d+1        3H3d+2        3H1f-3        3H1f-2        3H1f-1        3H1f0         3H1f+1        3H1f+2        3H1f+3        3H2f-3    
   19    3H2f-2        3H2f-1        3H2f0         3H2f+1        3H2f+2        3H2f+3        4H1s          4H2s          4H3s          4H4s      
   20    4H5s          4H1pz         4H1py         4H1px         4H2pz         4H2py         4H2px         4H3pz         4H3py         4H3px     
   21    4H4pz         4H4py         4H4px         4H1d-2        4H1d-1        4H1d0         4H1d+1        4H1d+2        4H2d-2        4H2d-1    
   22    4H2d0         4H2d+1        4H2d+2        4H3d-2        4H3d-1        4H3d0         4H3d+1        4H3d+2        4H1f-3        4H1f-2    
   23    4H1f-1        4H1f0         4H1f+1        4H1f+2        4H1f+3        4H2f-3        4H2f-2        4H2f-1        4H2f0         4H2f+1    
   24    4H2f+2        4H2f+3        5N1s          5N2s          5N3s          5N4s          5N5s          5N6s          5N7s          5N8s      
   25    5N9s          5N10s         5N11s         5N1pz         5N1py         5N1px         5N2pz         5N2py         5N2px         5N3pz     
   26    5N3py         5N3px         5N4pz         5N4py         5N4px         5N5pz         5N5py         5N5px         5N6pz         5N6py     
   27    5N6px         5N7pz         5N7py         5N7px         5N8pz         5N8py         5N8px         5N1d-2        5N1d-1        5N1d0     
   28    5N1d+1        5N1d+2        5N2d-2        5N2d-1        5N2d0         5N2d+1        5N2d+2        5N3d-2        5N3d-1        5N3d0     
   29    5N3d+1        5N3d+2        5N4d-2        5N4d-1        5N4d0         5N4d+1        5N4d+2        5N5d-2        5N5d-1        5N5d0     
   30    5N5d+1        5N5d+2        5N6d-2        5N6d-1        5N6d0         5N6d+1        5N6d+2        5N1f-3        5N1f-2        5N1f-1    
   31    5N1f0         5N1f+1        5N1f+2        5N1f+3        5N2f-3        5N2f-2        5N2f-1        5N2f0         5N2f+1        5N2f+2    
   32    5N2f+3        5N3f-3        5N3f-2        5N3f-1        5N3f0         5N3f+1        5N3f+2        5N3f+3        5N1g-4        5N1g-3    
   33    5N1g-2        5N1g-1        5N1g0         5N1g+1        5N1g+2        5N1g+3        5N1g+4        5N2g-4        5N2g-3        5N2g-2    
   34    5N2g-1        5N2g0         5N2g+1        5N2g+2        5N2g+3        5N2g+4        6H1s          6H2s          6H3s          6H4s      
   35    6H5s          6H1pz         6H1py         6H1px         6H2pz         6H2py         6H2px         6H3pz         6H3py         6H3px     
   36    6H4pz         6H4py         6H4px         6H1d-2        6H1d-1        6H1d0         6H1d+1        6H1d+2        6H2d-2        6H2d-1    
   37    6H2d0         6H2d+1        6H2d+2        6H3d-2        6H3d-1        6H3d0         6H3d+1        6H3d+2        6H1f-3        6H1f-2    
   38    6H1f-1        6H1f0         6H1f+1        6H1f+2        6H1f+3        6H2f-3        6H2f-2        6H2f-1        6H2f0         6H2f+1    
   39    6H2f+2        6H2f+3        7H1s          7H2s          7H3s          7H4s          7H5s          7H1pz         7H1py         7H1px     
   40    7H2pz         7H2py         7H2px         7H3pz         7H3py         7H3px         7H4pz         7H4py         7H4px         7H1d-2    
   41    7H1d-1        7H1d0         7H1d+1        7H1d+2        7H2d-2        7H2d-1        7H2d0         7H2d+1        7H2d+2        7H3d-2    
   42    7H3d-1        7H3d0         7H3d+1        7H3d+2        7H1f-3        7H1f-2        7H1f-1        7H1f0         7H1f+1        7H1f+2    
   43    7H1f+3        7H2f-3        7H2f-2        7H2f-1        7H2f0         7H2f+1        7H2f+2        7H2f+3        8H1s          8H2s      
   44    8H3s          8H4s          8H5s          8H1pz         8H1py         8H1px         8H2pz         8H2py         8H2px         8H3pz     
   45    8H3py         8H3px         8H4pz         8H4py         8H4px         8H1d-2        8H1d-1        8H1d0         8H1d+1        8H1d+2    
   46    8H2d-2        8H2d-1        8H2d0         8H2d+1        8H2d+2        8H3d-2        8H3d-1        8H3d0         8H3d+1        8H3d+2    
   47    8H1f-3        8H1f-2        8H1f-1        8H1f0         8H1f+1        8H1f+2        8H1f+3        8H2f-3        8H2f-2        8H2f-1    
   48    8H2f0         8H2f+1        8H2f+2        8H2f+3        9N1s          9N2s          9N3s          9N4s          9N5s          9N6s      
   49    9N7s          9N8s          9N9s          9N10s         9N11s         9N1pz         9N1py         9N1px         9N2pz         9N2py     
   50    9N2px         9N3pz         9N3py         9N3px         9N4pz         9N4py         9N4px         9N5pz         9N5py         9N5px     
   51    9N6pz         9N6py         9N6px         9N7pz         9N7py         9N7px         9N8pz         9N8py         9N8px         9N1d-2    
   52    9N1d-1        9N1d0         9N1d+1        9N1d+2        9N2d-2        9N2d-1        9N2d0         9N2d+1        9N2d+2        9N3d-2    
   53    9N3d-1        9N3d0         9N3d+1        9N3d+2        9N4d-2        9N4d-1        9N4d0         9N4d+1        9N4d+2        9N5d-2    
   54    9N5d-1        9N5d0         9N5d+1        9N5d+2        9N6d-2        9N6d-1        9N6d0         9N6d+1        9N6d+2        9N1f-3    
   55    9N1f-2        9N1f-1        9N1f0         9N1f+1        9N1f+2        9N1f+3        9N2f-3        9N2f-2        9N2f-1        9N2f0     
   56    9N2f+1        9N2f+2        9N2f+3        9N3f-3        9N3f-2        9N3f-1        9N3f0         9N3f+1        9N3f+2        9N3f+3    
   57    9N1g-4        9N1g-3        9N1g-2        9N1g-1        9N1g0         9N1g+1        9N1g+2        9N1g+3        9N1g+4        9N2g-4    
   58    9N2g-3        9N2g-2        9N2g-1        9N2g0         9N2g+1        9N2g+2        9N2g+3        9N2g+4       10H1s         10H2s      
   59   10H3s         10H4s         10H5s         10H1pz        10H1py        10H1px        10H2pz        10H2py        10H2px        10H3pz     
   60   10H3py        10H3px        10H4pz        10H4py        10H4px        10H1d-2       10H1d-1       10H1d0        10H1d+1       10H1d+2    
   61   10H2d-2       10H2d-1       10H2d0        10H2d+1       10H2d+2       10H3d-2       10H3d-1       10H3d0        10H3d+1       10H3d+2    
   62   10H1f-3       10H1f-2       10H1f-1       10H1f0        10H1f+1       10H1f+2       10H1f+3       10H2f-3       10H2f-2       10H2f-1    
   63   10H2f0        10H2f+1       10H2f+2       10H2f+3       11H1s         11H2s         11H3s         11H4s         11H5s         11H1pz     
   64   11H1py        11H1px        11H2pz        11H2py        11H2px        11H3pz        11H3py        11H3px        11H4pz        11H4py     
   65   11H4px        11H1d-2       11H1d-1       11H1d0        11H1d+1       11H1d+2       11H2d-2       11H2d-1       11H2d0        11H2d+1    
   66   11H2d+2       11H3d-2       11H3d-1       11H3d0        11H3d+1       11H3d+2       11H1f-3       11H1f-2       11H1f-1       11H1f0     
   67   11H1f+1       11H1f+2       11H1f+3       11H2f-3       11H2f-2       11H2f-1       11H2f0        11H2f+1       11H2f+2       11H2f+3    
   68   12H1s         12H2s         12H3s         12H4s         12H5s         12H1pz        12H1py        12H1px        12H2pz        12H2py     
   69   12H2px        12H3pz        12H3py        12H3px        12H4pz        12H4py        12H4px        12H1d-2       12H1d-1       12H1d0     
   70   12H1d+1       12H1d+2       12H2d-2       12H2d-1       12H2d0        12H2d+1       12H2d+2       12H3d-2       12H3d-1       12H3d0     
   71   12H3d+1       12H3d+2       12H1f-3       12H1f-2       12H1f-1       12H1f0        12H1f+1       12H1f+2       12H1f+3       12H2f-3    
   72   12H2f-2       12H2f-1       12H2f0        12H2f+1       12H2f+2       12H2f+3    
 
 Maximum number of basis functions per shell:   30
 Total number of basis functions:    726
 
 
 Fitting basis set for the correlation calculation:
 
   1  N  aug-cc-pvtz-ri [ 9s 7p 6d 4f 2g | 9s 7p 6d 4f 2g ]
   2  H  aug-cc-pvtz-ri [ 5s 4p 3d 2f | 5s 4p 3d 2f ]
   3  H  aug-cc-pvtz-ri [ 5s 4p 3d 2f | 5s 4p 3d 2f ]
   4  H  aug-cc-pvtz-ri [ 5s 4p 3d 2f | 5s 4p 3d 2f ]
   5  N  aug-cc-pvtz-ri [ 9s 7p 6d 4f 2g | 9s 7p 6d 4f 2g ]
   6  H  aug-cc-pvtz-ri [ 5s 4p 3d 2f | 5s 4p 3d 2f ]
   7  H  aug-cc-pvtz-ri [ 5s 4p 3d 2f | 5s 4p 3d 2f ]
   8  H  aug-cc-pvtz-ri [ 5s 4p 3d 2f | 5s 4p 3d 2f ]
   9  N  aug-cc-pvtz-ri [ 9s 7p 6d 4f 2g | 9s 7p 6d 4f 2g ]
  10  H  aug-cc-pvtz-ri [ 5s 4p 3d 2f | 5s 4p 3d 2f ]
  11  H  aug-cc-pvtz-ri [ 5s 4p 3d 2f | 5s 4p 3d 2f ]
  12  H  aug-cc-pvtz-ri [ 5s 4p 3d 2f | 5s 4p 3d 2f ]
 
 Basis functions:
            1             2             3             4             5             6             7             8             9            10
    0    1N1s          1N2s          1N3s          1N4s          1N5s          1N6s          1N7s          1N8s          1N9s          1N1pz     
    1    1N1py         1N1px         1N2pz         1N2py         1N2px         1N3pz         1N3py         1N3px         1N4pz         1N4py     
    2    1N4px         1N5pz         1N5py         1N5px         1N6pz         1N6py         1N6px         1N7pz         1N7py         1N7px     
    3    1N1d-2        1N1d-1        1N1d0         1N1d+1        1N1d+2        1N2d-2        1N2d-1        1N2d0         1N2d+1        1N2d+2    
    4    1N3d-2        1N3d-1        1N3d0         1N3d+1        1N3d+2        1N4d-2        1N4d-1        1N4d0         1N4d+1        1N4d+2    
    5    1N5d-2        1N5d-1        1N5d0         1N5d+1        1N5d+2        1N6d-2        1N6d-1        1N6d0         1N6d+1        1N6d+2    
    6    1N1f-3        1N1f-2        1N1f-1        1N1f0         1N1f+1        1N1f+2        1N1f+3        1N2f-3        1N2f-2        1N2f-1    
    7    1N2f0         1N2f+1        1N2f+2        1N2f+3        1N3f-3        1N3f-2        1N3f-1        1N3f0         1N3f+1        1N3f+2    
    8    1N3f+3        1N4f-3        1N4f-2        1N4f-1        1N4f0         1N4f+1        1N4f+2        1N4f+3        1N1g-4        1N1g-3    
    9    1N1g-2        1N1g-1        1N1g0         1N1g+1        1N1g+2        1N1g+3        1N1g+4        1N2g-4        1N2g-3        1N2g-2    
   10    1N2g-1        1N2g0         1N2g+1        1N2g+2        1N2g+3        1N2g+4        2H1s          2H2s          2H3s          2H4s      
   11    2H5s          2H1pz         2H1py         2H1px         2H2pz         2H2py         2H2px         2H3pz         2H3py         2H3px     
   12    2H4pz         2H4py         2H4px         2H1d-2        2H1d-1        2H1d0         2H1d+1        2H1d+2        2H2d-2        2H2d-1    
   13    2H2d0         2H2d+1        2H2d+2        2H3d-2        2H3d-1        2H3d0         2H3d+1        2H3d+2        2H1f-3        2H1f-2    
   14    2H1f-1        2H1f0         2H1f+1        2H1f+2        2H1f+3        2H2f-3        2H2f-2        2H2f-1        2H2f0         2H2f+1    
   15    2H2f+2        2H2f+3        3H1s          3H2s          3H3s          3H4s          3H5s          3H1pz         3H1py         3H1px     
   16    3H2pz         3H2py         3H2px         3H3pz         3H3py         3H3px         3H4pz         3H4py         3H4px         3H1d-2    
   17    3H1d-1        3H1d0         3H1d+1        3H1d+2        3H2d-2        3H2d-1        3H2d0         3H2d+1        3H2d+2        3H3d-2    
   18    3H3d-1        3H3d0         3H3d+1        3H3d+2        3H1f-3        3H1f-2        3H1f-1        3H1f0         3H1f+1        3H1f+2    
   19    3H1f+3        3H2f-3        3H2f-2        3H2f-1        3H2f0         3H2f+1        3H2f+2        3H2f+3        4H1s          4H2s      
   20    4H3s          4H4s          4H5s          4H1pz         4H1py         4H1px         4H2pz         4H2py         4H2px         4H3pz     
   21    4H3py         4H3px         4H4pz         4H4py         4H4px         4H1d-2        4H1d-1        4H1d0         4H1d+1        4H1d+2    
   22    4H2d-2        4H2d-1        4H2d0         4H2d+1        4H2d+2        4H3d-2        4H3d-1        4H3d0         4H3d+1        4H3d+2    
   23    4H1f-3        4H1f-2        4H1f-1        4H1f0         4H1f+1        4H1f+2        4H1f+3        4H2f-3        4H2f-2        4H2f-1    
   24    4H2f0         4H2f+1        4H2f+2        4H2f+3        5N1s          5N2s          5N3s          5N4s          5N5s          5N6s      
   25    5N7s          5N8s          5N9s          5N1pz         5N1py         5N1px         5N2pz         5N2py         5N2px         5N3pz     
   26    5N3py         5N3px         5N4pz         5N4py         5N4px         5N5pz         5N5py         5N5px         5N6pz         5N6py     
   27    5N6px         5N7pz         5N7py         5N7px         5N1d-2        5N1d-1        5N1d0         5N1d+1        5N1d+2        5N2d-2    
   28    5N2d-1        5N2d0         5N2d+1        5N2d+2        5N3d-2        5N3d-1        5N3d0         5N3d+1        5N3d+2        5N4d-2    
   29    5N4d-1        5N4d0         5N4d+1        5N4d+2        5N5d-2        5N5d-1        5N5d0         5N5d+1        5N5d+2        5N6d-2    
   30    5N6d-1        5N6d0         5N6d+1        5N6d+2        5N1f-3        5N1f-2        5N1f-1        5N1f0         5N1f+1        5N1f+2    
   31    5N1f+3        5N2f-3        5N2f-2        5N2f-1        5N2f0         5N2f+1        5N2f+2        5N2f+3        5N3f-3        5N3f-2    
   32    5N3f-1        5N3f0         5N3f+1        5N3f+2        5N3f+3        5N4f-3        5N4f-2        5N4f-1        5N4f0         5N4f+1    
   33    5N4f+2        5N4f+3        5N1g-4        5N1g-3        5N1g-2        5N1g-1        5N1g0         5N1g+1        5N1g+2        5N1g+3    
   34    5N1g+4        5N2g-4        5N2g-3        5N2g-2        5N2g-1        5N2g0         5N2g+1        5N2g+2        5N2g+3        5N2g+4    
   35    6H1s          6H2s          6H3s          6H4s          6H5s          6H1pz         6H1py         6H1px         6H2pz         6H2py     
   36    6H2px         6H3pz         6H3py         6H3px         6H4pz         6H4py         6H4px         6H1d-2        6H1d-1        6H1d0     
   37    6H1d+1        6H1d+2        6H2d-2        6H2d-1        6H2d0         6H2d+1        6H2d+2        6H3d-2        6H3d-1        6H3d0     
   38    6H3d+1        6H3d+2        6H1f-3        6H1f-2        6H1f-1        6H1f0         6H1f+1        6H1f+2        6H1f+3        6H2f-3    
   39    6H2f-2        6H2f-1        6H2f0         6H2f+1        6H2f+2        6H2f+3        7H1s          7H2s          7H3s          7H4s      
   40    7H5s          7H1pz         7H1py         7H1px         7H2pz         7H2py         7H2px         7H3pz         7H3py         7H3px     
   41    7H4pz         7H4py         7H4px         7H1d-2        7H1d-1        7H1d0         7H1d+1        7H1d+2        7H2d-2        7H2d-1    
   42    7H2d0         7H2d+1        7H2d+2        7H3d-2        7H3d-1        7H3d0         7H3d+1        7H3d+2        7H1f-3        7H1f-2    
   43    7H1f-1        7H1f0         7H1f+1        7H1f+2        7H1f+3        7H2f-3        7H2f-2        7H2f-1        7H2f0         7H2f+1    
   44    7H2f+2        7H2f+3        8H1s          8H2s          8H3s          8H4s          8H5s          8H1pz         8H1py         8H1px     
   45    8H2pz         8H2py         8H2px         8H3pz         8H3py         8H3px         8H4pz         8H4py         8H4px         8H1d-2    
   46    8H1d-1        8H1d0         8H1d+1        8H1d+2        8H2d-2        8H2d-1        8H2d0         8H2d+1        8H2d+2        8H3d-2    
   47    8H3d-1        8H3d0         8H3d+1        8H3d+2        8H1f-3        8H1f-2        8H1f-1        8H1f0         8H1f+1        8H1f+2    
   48    8H1f+3        8H2f-3        8H2f-2        8H2f-1        8H2f0         8H2f+1        8H2f+2        8H2f+3        9N1s          9N2s      
   49    9N3s          9N4s          9N5s          9N6s          9N7s          9N8s          9N9s          9N1pz         9N1py         9N1px     
   50    9N2pz         9N2py         9N2px         9N3pz         9N3py         9N3px         9N4pz         9N4py         9N4px         9N5pz     
   51    9N5py         9N5px         9N6pz         9N6py         9N6px         9N7pz         9N7py         9N7px         9N1d-2        9N1d-1    
   52    9N1d0         9N1d+1        9N1d+2        9N2d-2        9N2d-1        9N2d0         9N2d+1        9N2d+2        9N3d-2        9N3d-1    
   53    9N3d0         9N3d+1        9N3d+2        9N4d-2        9N4d-1        9N4d0         9N4d+1        9N4d+2        9N5d-2        9N5d-1    
   54    9N5d0         9N5d+1        9N5d+2        9N6d-2        9N6d-1        9N6d0         9N6d+1        9N6d+2        9N1f-3        9N1f-2    
   55    9N1f-1        9N1f0         9N1f+1        9N1f+2        9N1f+3        9N2f-3        9N2f-2        9N2f-1        9N2f0         9N2f+1    
   56    9N2f+2        9N2f+3        9N3f-3        9N3f-2        9N3f-1        9N3f0         9N3f+1        9N3f+2        9N3f+3        9N4f-3    
   57    9N4f-2        9N4f-1        9N4f0         9N4f+1        9N4f+2        9N4f+3        9N1g-4        9N1g-3        9N1g-2        9N1g-1    
   58    9N1g0         9N1g+1        9N1g+2        9N1g+3        9N1g+4        9N2g-4        9N2g-3        9N2g-2        9N2g-1        9N2g0     
   59    9N2g+1        9N2g+2        9N2g+3        9N2g+4       10H1s         10H2s         10H3s         10H4s         10H5s         10H1pz     
   60   10H1py        10H1px        10H2pz        10H2py        10H2px        10H3pz        10H3py        10H3px        10H4pz        10H4py     
   61   10H4px        10H1d-2       10H1d-1       10H1d0        10H1d+1       10H1d+2       10H2d-2       10H2d-1       10H2d0        10H2d+1    
   62   10H2d+2       10H3d-2       10H3d-1       10H3d0        10H3d+1       10H3d+2       10H1f-3       10H1f-2       10H1f-1       10H1f0     
   63   10H1f+1       10H1f+2       10H1f+3       10H2f-3       10H2f-2       10H2f-1       10H2f0        10H2f+1       10H2f+2       10H2f+3    
   64   11H1s         11H2s         11H3s         11H4s         11H5s         11H1pz        11H1py        11H1px        11H2pz        11H2py     
   65   11H2px        11H3pz        11H3py        11H3px        11H4pz        11H4py        11H4px        11H1d-2       11H1d-1       11H1d0     
   66   11H1d+1       11H1d+2       11H2d-2       11H2d-1       11H2d0        11H2d+1       11H2d+2       11H3d-2       11H3d-1       11H3d0     
   67   11H3d+1       11H3d+2       11H1f-3       11H1f-2       11H1f-1       11H1f0        11H1f+1       11H1f+2       11H1f+3       11H2f-3    
   68   11H2f-2       11H2f-1       11H2f0        11H2f+1       11H2f+2       11H2f+3       12H1s         12H2s         12H3s         12H4s      
[...]
   44    8H3s          8H4s          8H5s          8H1pz         8H1py         8H1px         8H2pz         8H2py         8H2px         8H3pz     
   45    8H3py         8H3px         8H4pz         8H4py         8H4px         8H1d-2        8H1d-1        8H1d0         8H1d+1        8H1d+2    
   46    8H2d-2        8H2d-1        8H2d0         8H2d+1        8H2d+2        8H3d-2        8H3d-1        8H3d0         8H3d+1        8H3d+2    
   47    8H1f-3        8H1f-2        8H1f-1        8H1f0         8H1f+1        8H1f+2        8H1f+3        8H2f-3        8H2f-2        8H2f-1    
   48    8H2f0         8H2f+1        8H2f+2        8H2f+3        9N1s          9N2s          9N3s          9N4s          9N5s          9N6s      
   49    9N7s          9N8s          9N9s          9N10s         9N11s         9N1pz         9N1py         9N1px         9N2pz         9N2py     
   50    9N2px         9N3pz         9N3py         9N3px         9N4pz         9N4py         9N4px         9N5pz         9N5py         9N5px     
   51    9N6pz         9N6py         9N6px         9N7pz         9N7py         9N7px         9N8pz         9N8py         9N8px         9N1d-2    
   52    9N1d-1        9N1d0         9N1d+1        9N1d+2        9N2d-2        9N2d-1        9N2d0         9N2d+1        9N2d+2        9N3d-2    
   53    9N3d-1        9N3d0         9N3d+1        9N3d+2        9N4d-2        9N4d-1        9N4d0         9N4d+1        9N4d+2        9N5d-2    
   54    9N5d-1        9N5d0         9N5d+1        9N5d+2        9N6d-2        9N6d-1        9N6d0         9N6d+1        9N6d+2        9N1f-3    
   55    9N1f-2        9N1f-1        9N1f0         9N1f+1        9N1f+2        9N1f+3        9N2f-3        9N2f-2        9N2f-1        9N2f0     
   56    9N2f+1        9N2f+2        9N2f+3        9N3f-3        9N3f-2        9N3f-1        9N3f0         9N3f+1        9N3f+2        9N3f+3    
   57    9N1g-4        9N1g-3        9N1g-2        9N1g-1        9N1g0         9N1g+1        9N1g+2        9N1g+3        9N1g+4        9N2g-4    
   58    9N2g-3        9N2g-2        9N2g-1        9N2g0         9N2g+1        9N2g+2        9N2g+3        9N2g+4       10H1s         10H2s      
   59   10H3s         10H4s         10H5s         10H1pz        10H1py        10H1px        10H2pz        10H2py        10H2px        10H3pz     
   60   10H3py        10H3px        10H4pz        10H4py        10H4px        10H1d-2       10H1d-1       10H1d0        10H1d+1       10H1d+2    
   61   10H2d-2       10H2d-1       10H2d0        10H2d+1       10H2d+2       10H3d-2       10H3d-1       10H3d0        10H3d+1       10H3d+2    
   62   10H1f-3       10H1f-2       10H1f-1       10H1f0        10H1f+1       10H1f+2       10H1f+3       10H2f-3       10H2f-2       10H2f-1    
   63   10H2f0        10H2f+1       10H2f+2       10H2f+3       11H1s         11H2s         11H3s         11H4s         11H5s         11H1pz     
   64   11H1py        11H1px        11H2pz        11H2py        11H2px        11H3pz        11H3py        11H3px        11H4pz        11H4py     
   65   11H4px        11H1d-2       11H1d-1       11H1d0        11H1d+1       11H1d+2       11H2d-2       11H2d-1       11H2d0        11H2d+1    
   66   11H2d+2       11H3d-2       11H3d-1       11H3d0        11H3d+1       11H3d+2       11H1f-3       11H1f-2       11H1f-1       11H1f0     
   67   11H1f+1       11H1f+2       11H1f+3       11H2f-3       11H2f-2       11H2f-1       11H2f0        11H2f+1       11H2f+2       11H2f+3    
   68   12H1s         12H2s         12H3s         12H4s         12H5s         12H1pz        12H1py        12H1px        12H2pz        12H2py     
   69   12H2px        12H3pz        12H3py        12H3px        12H4pz        12H4py        12H4px        12H1d-2       12H1d-1       12H1d0     
   70   12H1d+1       12H1d+2       12H2d-2       12H2d-1       12H2d0        12H2d+1       12H2d+2       12H3d-2       12H3d-1       12H3d0     
   71   12H3d+1       12H3d+2       12H1f-3       12H1f-2       12H1f-1       12H1f0        12H1f+1       12H1f+2       12H1f+3       12H2f-3    
   72   12H2f-2       12H2f-1       12H2f0        12H2f+1       12H2f+2       12H2f+3    
 
 Maximum number of basis functions per shell:   30
 Total number of basis functions:    726
 
 
 Fitting basis set for the correlation calculation:
 
   1  N  aug-cc-pvtz-ri [ 9s 7p 6d 4f 2g | 9s 7p 6d 4f 2g ]
   2  H  aug-cc-pvtz-ri [ 5s 4p 3d 2f | 5s 4p 3d 2f ]
   3  H  aug-cc-pvtz-ri [ 5s 4p 3d 2f | 5s 4p 3d 2f ]
   4  H  aug-cc-pvtz-ri [ 5s 4p 3d 2f | 5s 4p 3d 2f ]
   5  N  aug-cc-pvtz-ri [ 9s 7p 6d 4f 2g | 9s 7p 6d 4f 2g ]
   6  H  aug-cc-pvtz-ri [ 5s 4p 3d 2f | 5s 4p 3d 2f ]
   7  H  aug-cc-pvtz-ri [ 5s 4p 3d 2f | 5s 4p 3d 2f ]
   8  H  aug-cc-pvtz-ri [ 5s 4p 3d 2f | 5s 4p 3d 2f ]
   9  N  aug-cc-pvtz-ri [ 9s 7p 6d 4f 2g | 9s 7p 6d 4f 2g ]
  10  H  aug-cc-pvtz-ri [ 5s 4p 3d 2f | 5s 4p 3d 2f ]
  11  H  aug-cc-pvtz-ri [ 5s 4p 3d 2f | 5s 4p 3d 2f ]
  12  H  aug-cc-pvtz-ri [ 5s 4p 3d 2f | 5s 4p 3d 2f ]
 
 Basis functions:
            1             2             3             4             5             6             7             8             9            10
    0    1N1s          1N2s          1N3s          1N4s          1N5s          1N6s          1N7s          1N8s          1N9s          1N1pz     
    1    1N1py         1N1px         1N2pz         1N2py         1N2px         1N3pz         1N3py         1N3px         1N4pz         1N4py     
    2    1N4px         1N5pz         1N5py         1N5px         1N6pz         1N6py         1N6px         1N7pz         1N7py         1N7px     
    3    1N1d-2        1N1d-1        1N1d0         1N1d+1        1N1d+2        1N2d-2        1N2d-1        1N2d0         1N2d+1        1N2d+2    
    4    1N3d-2        1N3d-1        1N3d0         1N3d+1        1N3d+2        1N4d-2        1N4d-1        1N4d0         1N4d+1        1N4d+2    
    5    1N5d-2        1N5d-1        1N5d0         1N5d+1        1N5d+2        1N6d-2        1N6d-1        1N6d0         1N6d+1        1N6d+2    
    6    1N1f-3        1N1f-2        1N1f-1        1N1f0         1N1f+1        1N1f+2        1N1f+3        1N2f-3        1N2f-2        1N2f-1    
    7    1N2f0         1N2f+1        1N2f+2        1N2f+3        1N3f-3        1N3f-2        1N3f-1        1N3f0         1N3f+1        1N3f+2    
    8    1N3f+3        1N4f-3        1N4f-2        1N4f-1        1N4f0         1N4f+1        1N4f+2        1N4f+3        1N1g-4        1N1g-3    
    9    1N1g-2        1N1g-1        1N1g0         1N1g+1        1N1g+2        1N1g+3        1N1g+4        1N2g-4        1N2g-3        1N2g-2    
   10    1N2g-1        1N2g0         1N2g+1        1N2g+2        1N2g+3        1N2g+4        2H1s          2H2s          2H3s          2H4s      
   11    2H5s          2H1pz         2H1py         2H1px         2H2pz         2H2py         2H2px         2H3pz         2H3py         2H3px     
   12    2H4pz         2H4py         2H4px         2H1d-2        2H1d-1        2H1d0         2H1d+1        2H1d+2        2H2d-2        2H2d-1    
   13    2H2d0         2H2d+1        2H2d+2        2H3d-2        2H3d-1        2H3d0         2H3d+1        2H3d+2        2H1f-3        2H1f-2    
   14    2H1f-1        2H1f0         2H1f+1        2H1f+2        2H1f+3        2H2f-3        2H2f-2        2H2f-1        2H2f0         2H2f+1    
   15    2H2f+2        2H2f+3        3H1s          3H2s          3H3s          3H4s          3H5s          3H1pz         3H1py         3H1px     
   16    3H2pz         3H2py         3H2px         3H3pz         3H3py         3H3px         3H4pz         3H4py         3H4px         3H1d-2    
   17    3H1d-1        3H1d0         3H1d+1        3H1d+2        3H2d-2        3H2d-1        3H2d0         3H2d+1        3H2d+2        3H3d-2    
   18    3H3d-1        3H3d0         3H3d+1        3H3d+2        3H1f-3        3H1f-2        3H1f-1        3H1f0         3H1f+1        3H1f+2    
   19    3H1f+3        3H2f-3        3H2f-2        3H2f-1        3H2f0         3H2f+1        3H2f+2        3H2f+3        4H1s          4H2s      
   20    4H3s          4H4s          4H5s          4H1pz         4H1py         4H1px         4H2pz         4H2py         4H2px         4H3pz     
   21    4H3py         4H3px         4H4pz         4H4py         4H4px         4H1d-2        4H1d-1        4H1d0         4H1d+1        4H1d+2    
   22    4H2d-2        4H2d-1        4H2d0         4H2d+1        4H2d+2        4H3d-2        4H3d-1        4H3d0         4H3d+1        4H3d+2    
   23    4H1f-3        4H1f-2        4H1f-1        4H1f0         4H1f+1        4H1f+2        4H1f+3        4H2f-3        4H2f-2        4H2f-1    
   24    4H2f0         4H2f+1        4H2f+2        4H2f+3        5N1s          5N2s          5N3s          5N4s          5N5s          5N6s      
   25    5N7s          5N8s          5N9s          5N1pz         5N1py         5N1px         5N2pz         5N2py         5N2px         5N3pz     
   26    5N3py         5N3px         5N4pz         5N4py         5N4px         5N5pz         5N5py         5N5px         5N6pz         5N6py     
   27    5N6px         5N7pz         5N7py         5N7px         5N1d-2        5N1d-1        5N1d0         5N1d+1        5N1d+2        5N2d-2    
   28    5N2d-1        5N2d0         5N2d+1        5N2d+2        5N3d-2        5N3d-1        5N3d0         5N3d+1        5N3d+2        5N4d-2    
   29    5N4d-1        5N4d0         5N4d+1        5N4d+2        5N5d-2        5N5d-1        5N5d0         5N5d+1        5N5d+2        5N6d-2    
   30    5N6d-1        5N6d0         5N6d+1        5N6d+2        5N1f-3        5N1f-2        5N1f-1        5N1f0         5N1f+1        5N1f+2    
   31    5N1f+3        5N2f-3        5N2f-2        5N2f-1        5N2f0         5N2f+1        5N2f+2        5N2f+3        5N3f-3        5N3f-2    
   32    5N3f-1        5N3f0         5N3f+1        5N3f+2        5N3f+3        5N4f-3        5N4f-2        5N4f-1        5N4f0         5N4f+1    
   33    5N4f+2        5N4f+3        5N1g-4        5N1g-3        5N1g-2        5N1g-1        5N1g0         5N1g+1        5N1g+2        5N1g+3    
   34    5N1g+4        5N2g-4        5N2g-3        5N2g-2        5N2g-1        5N2g0         5N2g+1        5N2g+2        5N2g+3        5N2g+4    
   35    6H1s          6H2s          6H3s          6H4s          6H5s          6H1pz         6H1py         6H1px         6H2pz         6H2py     
   36    6H2px         6H3pz         6H3py         6H3px         6H4pz         6H4py         6H4px         6H1d-2        6H1d-1        6H1d0     
   37    6H1d+1        6H1d+2        6H2d-2        6H2d-1        6H2d0         6H2d+1        6H2d+2        6H3d-2        6H3d-1        6H3d0     
   38    6H3d+1        6H3d+2        6H1f-3        6H1f-2        6H1f-1        6H1f0         6H1f+1        6H1f+2        6H1f+3        6H2f-3    
   39    6H2f-2        6H2f-1        6H2f0         6H2f+1        6H2f+2        6H2f+3        7H1s          7H2s          7H3s          7H4s      
   40    7H5s          7H1pz         7H1py         7H1px         7H2pz         7H2py         7H2px         7H3pz         7H3py         7H3px     
   41    7H4pz         7H4py         7H4px         7H1d-2        7H1d-1        7H1d0         7H1d+1        7H1d+2        7H2d-2        7H2d-1    
   42    7H2d0         7H2d+1        7H2d+2        7H3d-2        7H3d-1        7H3d0         7H3d+1        7H3d+2        7H1f-3        7H1f-2    
   43    7H1f-1        7H1f0         7H1f+1        7H1f+2        7H1f+3        7H2f-3        7H2f-2        7H2f-1        7H2f0         7H2f+1    
   44    7H2f+2        7H2f+3        8H1s          8H2s          8H3s          8H4s          8H5s          8H1pz         8H1py         8H1px     
   45    8H2pz         8H2py         8H2px         8H3pz         8H3py         8H3px         8H4pz         8H4py         8H4px         8H1d-2    
   46    8H1d-1        8H1d0         8H1d+1        8H1d+2        8H2d-2        8H2d-1        8H2d0         8H2d+1        8H2d+2        8H3d-2    
   47    8H3d-1        8H3d0         8H3d+1        8H3d+2        8H1f-3        8H1f-2        8H1f-1        8H1f0         8H1f+1        8H1f+2    
   48    8H1f+3        8H2f-3        8H2f-2        8H2f-1        8H2f0         8H2f+1        8H2f+2        8H2f+3        9N1s          9N2s      
   49    9N3s          9N4s          9N5s          9N6s          9N7s          9N8s          9N9s          9N1pz         9N1py         9N1px     
   50    9N2pz         9N2py         9N2px         9N3pz         9N3py         9N3px         9N4pz         9N4py         9N4px         9N5pz     
   51    9N5py         9N5px         9N6pz         9N6py         9N6px         9N7pz         9N7py         9N7px         9N1d-2        9N1d-1    
   52    9N1d0         9N1d+1        9N1d+2        9N2d-2        9N2d-1        9N2d0         9N2d+1        9N2d+2        9N3d-2        9N3d-1    
   53    9N3d0         9N3d+1        9N3d+2        9N4d-2        9N4d-1        9N4d0         9N4d+1        9N4d+2        9N5d-2        9N5d-1    
   54    9N5d0         9N5d+1        9N5d+2        9N6d-2        9N6d-1        9N6d0         9N6d+1        9N6d+2        9N1f-3        9N1f-2    
   55    9N1f-1        9N1f0         9N1f+1        9N1f+2        9N1f+3        9N2f-3        9N2f-2        9N2f-1        9N2f0         9N2f+1    
   56    9N2f+2        9N2f+3        9N3f-3        9N3f-2        9N3f-1        9N3f0         9N3f+1        9N3f+2        9N3f+3        9N4f-3    
   57    9N4f-2        9N4f-1        9N4f0         9N4f+1        9N4f+2        9N4f+3        9N1g-4        9N1g-3        9N1g-2        9N1g-1    
   58    9N1g0         9N1g+1        9N1g+2        9N1g+3        9N1g+4        9N2g-4        9N2g-3        9N2g-2        9N2g-1        9N2g0     
   59    9N2g+1        9N2g+2        9N2g+3        9N2g+4       10H1s         10H2s         10H3s         10H4s         10H5s         10H1pz     
   60   10H1py        10H1px        10H2pz        10H2py        10H2px        10H3pz        10H3py        10H3px        10H4pz        10H4py     
   61   10H4px        10H1d-2       10H1d-1       10H1d0        10H1d+1       10H1d+2       10H2d-2       10H2d-1       10H2d0        10H2d+1    
   62   10H2d+2       10H3d-2       10H3d-1       10H3d0        10H3d+1       10H3d+2       10H1f-3       10H1f-2       10H1f-1       10H1f0     
   63   10H1f+1       10H1f+2       10H1f+3       10H2f-3       10H2f-2       10H2f-1       10H2f0        10H2f+1       10H2f+2       10H2f+3    
   64   11H1s         11H2s         11H3s         11H4s         11H5s         11H1pz        11H1py        11H1px        11H2pz        11H2py     
   65   11H2px        11H3pz        11H3py        11H3px        11H4pz        11H4py        11H4px        11H1d-2       11H1d-1       11H1d0     
   66   11H1d+1       11H1d+2       11H2d-2       11H2d-1       11H2d0        11H2d+1       11H2d+2       11H3d-2       11H3d-1       11H3d0     
   67   11H3d+1       11H3d+2       11H1f-3       11H1f-2       11H1f-1       11H1f0        11H1f+1       11H1f+2       11H1f+3       11H2f-3    
   68   11H2f-2       11H2f-1       11H2f0        11H2f+1       11H2f+2       11H2f+3       12H1s         12H2s         12H3s         12H4s      
   69   12H5s         12H1pz        12H1py        12H1px        12H2pz        12H2py        12H2px        12H3pz        12H3py        12H3px     
   70   12H4pz        12H4py        12H4px        12H1d-2       12H1d-1       12H1d0        12H1d+1       12H1d+2       12H2d-2       12H2d-1    
   71   12H2d0        12H2d+1       12H2d+2       12H3d-2       12H3d-1       12H3d0        12H3d+1       12H3d+2       12H1f-3       12H1f-2    
   72   12H1f-1       12H1f0        12H1f+1       12H1f+2       12H1f+3       12H2f-3       12H2f-2       12H2f-1       12H2f0        12H2f+1    
   73   12H2f+2       12H2f+3    
 
 Maximum number of basis functions per shell:   30
 Total number of basis functions:    732
 
 
 Old basis set for SCF restart
 
   1  N  def2-svp [ 7s 4p 1d | 3s 2p 1d ]
   2  H  def2-svp [ 4s 1p | 2s 1p ]
   3  H  def2-svp [ 4s 1p | 2s 1p ]
   4  H  def2-svp [ 4s 1p | 2s 1p ]
   5  N  def2-svp [ 7s 4p 1d | 3s 2p 1d ]
   6  H  def2-svp [ 4s 1p | 2s 1p ]
   7  H  def2-svp [ 4s 1p | 2s 1p ]
   8  H  def2-svp [ 4s 1p | 2s 1p ]
   9  N  def2-svp [ 7s 4p 1d | 3s 2p 1d ]
  10  H  def2-svp [ 4s 1p | 2s 1p ]
  11  H  def2-svp [ 4s 1p | 2s 1p ]
  12  H  def2-svp [ 4s 1p | 2s 1p ]
 
 Basis functions:
            1             2             3             4             5             6             7             8             9            10
    0    1N1s          1N2s          1N3s          1N1pz         1N1py         1N1px         1N2pz         1N2py         1N2px         1N1d-2    
    1    1N1d-1        1N1d0         1N1d+1        1N1d+2        2H1s          2H2s          2H1pz         2H1py         2H1px         3H1s      
    2    3H2s          3H1pz         3H1py         3H1px         4H1s          4H2s          4H1pz         4H1py         4H1px         5N1s      
    3    5N2s          5N3s          5N1pz         5N1py         5N1px         5N2pz         5N2py         5N2px         5N1d-2        5N1d-1    
    4    5N1d0         5N1d+1        5N1d+2        6H1s          6H2s          6H1pz         6H1py         6H1px         7H1s          7H2s      
    5    7H1pz         7H1py         7H1px         8H1s          8H2s          8H1pz         8H1py         8H1px         9N1s          9N2s      
    6    9N3s          9N1pz         9N1py         9N1px         9N2pz         9N2py         9N2px         9N1d-2        9N1d-1        9N1d0     
    7    9N1d+1        9N1d+2       10H1s         10H2s         10H1pz        10H1py        10H1px        11H1s         11H2s         11H1pz     
    8   11H1py        11H1px        12H1s         12H2s         12H1pz        12H1py        12H1px     
 
 Maximum number of basis functions per shell:   30
 Total number of basis functions:     87
 
 
 Calculation of prescreening integrals...
 CPU time [min]:     0.337                   Wall time [min]:     0.009
 
 Calculation of two-center Coulomb integrals...
   1% done.
  12% done.
  23% done.
  34% done.
  46% done.
  62% done.
  73% done.
  84% done.
  96% done.
 100% done.
 CPU time [min]:     0.353                   Wall time [min]:     0.009
 
 Cholesky decomposition of the inverse of the two-center matrix...
 CPU time [min]:     0.382                   Wall time [min]:     0.010
 
 Calculation of three-center Coulomb integrals...
   1% done.
  12% done.
  23% done.
  36% done.
  51% done.
  64% done.
  75% done.
  87% done.
 100% done.
 CPU time [min]:     3.928                   Wall time [min]:     0.066

 ************************ 2026-02-26 20:22:26 *************************
 Executing drpa...

 Three-index integral transformation and DF-MP2 calculation
 Allocation of 46.0 Gbytes of memory...
 
 Minimal memory requirement for (ai|P) integrals:       16.4 MB

 Calculating (ai|P) integrals...
 Number of integral batches:    1
 Occupied indices per batch:    8
 
 Transforming integrals of batch 1...
 CPU time [min]:     0.570                   Wall time [min]:     0.026
 
 
 
 Reference energy [au]:                      -112.440119368543
 DF-MP2 singlet pair energy [au]:              -0.376953808720
 DF-MP2 triplet pair energy [au]:              -0.107747434073
 DF-SCS-MP2 correlation energy [au]:           -0.488260381821
 DF-SCS-MP2 energy [au]:                     -112.928379750364
 DF-SOS-MP2 correlation energy [au]:           -0.490039951335
 DF-SOS-MP2 energy [au]:                     -112.930159319878
 DF-MP2 correlation energy [au]:               -0.484701242793
 DF-MP2 energy [au]:                         -112.924820611335
 
 ************************ 2026-02-26 20:22:28 *************************
                      Normal termination of mrcc.
 **********************************************************************
