 **********************************************************************
                          MRCC program system
 **********************************************************************
 
                              Written by
     Mihaly Kallay, Peter R. Nagy, David Mester, Laszlo Gyevi-Nagy,
        Jozsef Csoka, P. Bernat Szabo, Zoltan Rolik, Gyula Samu,
     Jozsef Csontos, Bence Hegely, Adam Ganyecz, Istvan Ladjanszki,
       Lorant Szegedy, Bence Ladoczki, Klara Petrov, Mate Farkas,
                    Pal D. Mezei, and Reka A. Horvath
 
        Department of Physical Chemistry and Materials Science
            Budapest University of Technology and Economics
                  Budapest P.O.Box 91, H-1521 Hungary
 
                              www.mrcc.hu
 
                     Release date: August 28, 2023

 ************************ 2026-02-26 23:06:32 *************************
 Executing minp...

 Reading input from MINP...
 
 Input file:
 
charge=0
mult=1
calc=LNO-CCSD(T)
basis=aug-cc-pVDZ
symm=off
verbosity=3
unit=angs
scfalg=locfit1
scfmaxit=200
scftol=8
basis_sm=def2-SVP
usedisk=0
aocd=extra
chtol=1d-6
iesttol=0.001
scfiguess=small
lcorthr=vtight
mem=46GB
ghost=serialno


geom=xyz
12

N      3.60995473454    1.52057191074    4.08577558721
H      4.42722968319    1.16893531034    4.59786809656
H      3.96163147006    2.03264798552    3.26841604077
H      3.09781293566    0.70333789254    3.73416418411
N      4.08580437245    3.60992628524    6.65101993408
H      3.73412022664    3.09785482065    5.83367042895
H      4.59792989480    4.42715858900    6.29942160276
H      3.26851213636    3.96156461954    7.16312088514
N      4.08580437245    8.74042628524    6.65101993408
H      3.73412022664    8.22835482065    5.83367042895
H      4.59792989480    9.55765858900    6.29942160276
H      3.26851213636    9.09206461954    7.16312088514
 
 
 Checking keyword combinations...
 
 Keywords:
 
 active=none
 agrid=ld0006-ld0590
 agrid_pssp=ld0006-ld0194
 agrid_pssp_sm=ld0006-ld0074
 basis=aug-cc-pvdz
 basis_sm=def2-svp
 basopt=off
 bfbasis=none
 bfgsmem=10
 bfgstol=1.0d-3
 boysalg=jacobi
 bpcompo=0.985
 bpcompv=0.98
 bpdfo=0.985
 bpocc=0.99999d0
 bppdo=0.999d0
 bppdv=0.98
 bpedo=0.99999d0
 bpedv=0.995d0
 calc=ccsd(t)
 ccmaxit=50
 ccprog=ccsd
 ccsdalg=dfdirect
 ccsdmkl=seq
 ccsdrest=off
 ccsdthreads=2
 cctol=5
 charge=0
 cialg=direct
 ciguess=off
 cmpgrp=auto
 comprest=off
 coord_sys=ric
 core=frozen
 corembed=off
 csapprox=off
 cvs=off
 dboc=off
 delocsomofact=
 dendec=cholesky
 dens=0
 denscorr=0
 dfalg=lineq
 dfbasis_cab=none
 dfbasis_cor=auto
 dfbasis_scf=auto
 dfbasis_scf_sm=auto
 dfintran=drpa
 dft=off
 dhexc=adc(2)
 diag=david
 docc=
 domrad=10.d0
 drpaalg=auto
 dual=off
 dual_df=off
 ecp=auto
 edisp=off
 edisp_embed=off
 embed=off
 epairestfact=off
 epairscale=1.d0
 etemp=300
 epert=none
 eps=
 espcharge=off
 excrad=1.0
 excrad_fin=0.100000000D-02
 fitting=coulomb
 fmm=off
 fmmord=8
 fnonorb=
 freq=off
 gamma=1.d0
 gauss=spher
 geom=xyz
 gopt=off
 ghost=serialno
 gtol=7
 grdens=off
 grid=auto
 grid_sm=auto
 gridbatch_cos=2000
 grtol=10
 guido_ct=off
 hamilton=dc
 iface=none
 intalg=auto
 ip_ea=off
 itol=12
 laptol=1.d-3
 lccoporder=lccfirst
 lcorthr=vtight
 lccrest=off
 ldfgrad_tol=8
 lmp2dens=on
 lnoepso=1e-6
 lnoepsv=1e-7
 localcc=2021
 localcorrsymm=off
 locintrf=direct
 mact=
 maxact=off
 maxdim=200
 maxex=0
 maxmicroit=100
 mcscfiguess=hf
 mem=46gb
 mmprog=
 molden=on
 mpitasks=1
 mulmet=3
 mult=1
 nab=off
 nacto=0
 nactv=0
 naf_amp=3.16d-3
 naf_cor=1e-3
 naf_f12=off
 naf_scf=off
 nafalg=albe
 nafdens=off
 naftyp=jpq
 nchol=auto
 ndeps=1e-3
 nstate=1
 nsing=0
 nto=off
 ntrip=0
 num_grad=off
 occ=
 occri=off
 oniom=off
 oniom_eechg=off
 oniom_pcm=off
 oniom_qcorr=off
 optalg=
 optmaxit=50
 optetol=1e-6
 optex=0
 optgtol=1e-4
 optstol=1e-3
 orblocc=off
 orbloce=off
 orbloco=boys
 orblocv=pao
 orblocguess=cholesky
 osveps=-1.d0
 ovirt=off
 ovltol=1e-7
 ovosnorb=80.0
 pao_subsys_tol=1e-3
 pcm=off
 popul=off
 pressure=100000
 pssp=off
 ptfreq=0.0
 ptthreads=2
 qmreg=
 qmmm=off
 qro=off
 qscf=off
 redcost_exc=off
 redcost_tddft=0.985d0
 refdet=none
 rest=0
 rgrid=log3
 rism=off
 rohfcore=standard
 rohftype=semicanonical
 scfalg=locfit1
 scf_conv=auto
 scfdamp=0.0d0
 scfdamp_mode=off
 scfdamp_end=200
 scfdamp_dampstep=0.d0
 scfdamp_dtol=0.0d0
 scfdamp_maxfact=0.0d0
 scfdamp_minfact=0.0d0
 scfdiis=on
 scfdiis_dtol=0.0d0
 scfdiis_end=200
 scfdiis_start=2
 scfdiis_step=1
 scfdiis_watch=off
 scfdiis_wrange=10
 scfdiis_wlimit=5
 scfdiis_delmax=2
 scfdtol=9
 scfext=10
 scfguessdens=
 scfiguess=small
 scfloc=pm
 scflshift=0.20
 scflshift_end=8
 scflshift_dtol=0.0
 scflshift_gaptol=0.20
 scfmaxit=200
 scftype=
 scftol=8
 scspe=1.d0
 scsph=1.d0
 scsps=1.2d0
 scsps_t=1.2d0
 scspt=0.33333333333333
 scspt_t=0.33333333333333
 scspv=1.d0
 spairtol=-1.d0
 sqmprog=
 subminp=top
 symm=0
 talg=lapl
 temp=298.15
 test=off
 theodore=off
 tlmo=0.999
 tpao=0.94
 tprint=off
 uncontract=off
 unit=angs
 usedisk=0
 verbosity=3
 wpairtol=1.d-6
 
 Calculating integrals for small-basis SCF...

 ************************ 2026-02-26 23:06:33 *************************
 Executing integ...

 Allocation of 46.0 Gbytes of memory...
 
 
 Number of atoms:                 12
 Charge:                           0
 Number of electrons:             30
 Number of core electrons:         6
 Spin multiplicity:                1
 
                 Cartesian coordinates [bohr]      Atomic mass [AMU]  Z
   1  N     6.82182577    2.87346447    7.72099687    14.003074       7
   2  H     8.36625160    2.20896759    8.68871146     1.007825       1
   3  H     7.48639849    3.84114800    6.17641118     1.007825       1
   4  H     5.85401804    1.32911599    7.05654762     1.007825       1
   5  N     7.72105127    6.82177201   12.56860613    14.003074       7
   6  H     7.05646455    5.85409719   11.02403942     1.007825       1
   7  H     8.68882825    8.36611725   11.90418158     1.007825       1
   8  H     6.17659278    7.48627216   13.53633668     1.007825       1
   9  N     7.72105127   16.51701190   12.56860613    14.003074       7
  10  H     7.05646455   15.54933707   11.02403942     1.007825       1
  11  H     8.68882825   18.06135713   11.90418158     1.007825       1
  12  H     6.17659278   17.18151205   13.53633668     1.007825       1
 
 This molecule is an asymmetric top.
 
 Point group: C1  
 Computational point group: C1  
 
 Cartesian coordinates in standard orientation [bohr]
   1  N    -6.57935151   -1.29677927    0.09743045
   2  H    -6.85389549    0.01505297   -1.30506751
   3  H    -6.08126508   -2.96171282   -0.76496125
   4  H    -8.29522924   -1.58665705    0.95468850
   5  N    -1.33616564    2.21966971   -0.10417074
   6  H    -2.74769182    0.96386027    0.33661596
   7  H    -0.01323401    1.25311799   -1.14276794
   8  H    -0.48931835    2.73776122    1.56251631
   9  N     7.91408649   -0.68307545   -0.03647662
  10  H     6.50256031   -1.93888489    0.40431008
  11  H     9.23701812   -1.64962717   -1.07507382
  12  H     8.76093379   -0.16498394    1.63021043
 
 Nuclear repulsion energy [au]:         68.058685887881
 
Warning: for H atoms in the case of dfbasis_scf=auto the AO basis is set as dfbasis_scf instead of def2-qzvp(pd)-ri-jk because the AO basis is larger. Set the dfbasis_scf=def2-qzvp(pd)-ri-jk in MINP if that is desired.
 
 
 Basis set information:
 
 Maximum angular momentum: g
 Maximum number of contracted Gaussians:   10
 Maximum number of primitive Gaussians:    14
 Spherical harmonic GTOs are used.
 
 
 Conventional basis set:
 
   1  N  def2-svp [ 7s 4p 1d | 3s 2p 1d ]
   2  H  def2-svp [ 4s 1p | 2s 1p ]
   3  H  def2-svp [ 4s 1p | 2s 1p ]
   4  H  def2-svp [ 4s 1p | 2s 1p ]
   5  N  def2-svp [ 7s 4p 1d | 3s 2p 1d ]
   6  H  def2-svp [ 4s 1p | 2s 1p ]
   7  H  def2-svp [ 4s 1p | 2s 1p ]
   8  H  def2-svp [ 4s 1p | 2s 1p ]
   9  N  def2-svp [ 7s 4p 1d | 3s 2p 1d ]
  10  H  def2-svp [ 4s 1p | 2s 1p ]
  11  H  def2-svp [ 4s 1p | 2s 1p ]
  12  H  def2-svp [ 4s 1p | 2s 1p ]
 
 Basis functions:
            1             2             3             4             5             6             7             8             9            10
    0    1N1s          1N2s          1N3s          1N1pz         1N1py         1N1px         1N2pz         1N2py         1N2px         1N1d-2    
    1    1N1d-1        1N1d0         1N1d+1        1N1d+2        2H1s          2H2s          2H1pz         2H1py         2H1px         3H1s      
    2    3H2s          3H1pz         3H1py         3H1px         4H1s          4H2s          4H1pz         4H1py         4H1px         5N1s      
    3    5N2s          5N3s          5N1pz         5N1py         5N1px         5N2pz         5N2py         5N2px         5N1d-2        5N1d-1    
    4    5N1d0         5N1d+1        5N1d+2        6H1s          6H2s          6H1pz         6H1py         6H1px         7H1s          7H2s      
    5    7H1pz         7H1py         7H1px         8H1s          8H2s          8H1pz         8H1py         8H1px         9N1s          9N2s      
    6    9N3s          9N1pz         9N1py         9N1px         9N2pz         9N2py         9N2px         9N1d-2        9N1d-1        9N1d0     
    7    9N1d+1        9N1d+2       10H1s         10H2s         10H1pz        10H1py        10H1px        11H1s         11H2s         11H1pz     
    8   11H1py        11H1px        12H1s         12H2s         12H1pz        12H1py        12H1px     
 
 Maximum number of basis functions per shell:    6
 Total number of basis functions:     87
 
 
 Fitting basis set for the SCF calculation:
 
   1  N  def2-qzvpp-ri-jk [ 14s 10p 6d 2f 1g | 10s 8p 4d 2f 1g ]
   2  H  def2-qzvpp [ 7s 3p 2d 1f | 4s 3p 2d 1f ]
   3  H  def2-qzvpp [ 7s 3p 2d 1f | 4s 3p 2d 1f ]
   4  H  def2-qzvpp [ 7s 3p 2d 1f | 4s 3p 2d 1f ]
   5  N  def2-qzvpp-ri-jk [ 14s 10p 6d 2f 1g | 10s 8p 4d 2f 1g ]
   6  H  def2-qzvpp [ 7s 3p 2d 1f | 4s 3p 2d 1f ]
   7  H  def2-qzvpp [ 7s 3p 2d 1f | 4s 3p 2d 1f ]
   8  H  def2-qzvpp [ 7s 3p 2d 1f | 4s 3p 2d 1f ]
   9  N  def2-qzvpp-ri-jk [ 14s 10p 6d 2f 1g | 10s 8p 4d 2f 1g ]
  10  H  def2-qzvpp [ 7s 3p 2d 1f | 4s 3p 2d 1f ]
  11  H  def2-qzvpp [ 7s 3p 2d 1f | 4s 3p 2d 1f ]
  12  H  def2-qzvpp [ 7s 3p 2d 1f | 4s 3p 2d 1f ]
 
 Basis functions:
            1             2             3             4             5             6             7             8             9            10
    0    1N1s          1N2s          1N3s          1N4s          1N5s          1N6s          1N7s          1N8s          1N9s          1N10s     
    1    1N1pz         1N1py         1N1px         1N2pz         1N2py         1N2px         1N3pz         1N3py         1N3px         1N4pz     
    2    1N4py         1N4px         1N5pz         1N5py         1N5px         1N6pz         1N6py         1N6px         1N7pz         1N7py     
    3    1N7px         1N8pz         1N8py         1N8px         1N1d-2        1N1d-1        1N1d0         1N1d+1        1N1d+2        1N2d-2    
    4    1N2d-1        1N2d0         1N2d+1        1N2d+2        1N3d-2        1N3d-1        1N3d0         1N3d+1        1N3d+2        1N4d-2    
    5    1N4d-1        1N4d0         1N4d+1        1N4d+2        1N1f-3        1N1f-2        1N1f-1        1N1f0         1N1f+1        1N1f+2    
    6    1N1f+3        1N2f-3        1N2f-2        1N2f-1        1N2f0         1N2f+1        1N2f+2        1N2f+3        1N1g-4        1N1g-3    
    7    1N1g-2        1N1g-1        1N1g0         1N1g+1        1N1g+2        1N1g+3        1N1g+4        2H1s          2H2s          2H3s      
    8    2H4s          2H1pz         2H1py         2H1px         2H2pz         2H2py         2H2px         2H3pz         2H3py         2H3px     
    9    2H1d-2        2H1d-1        2H1d0         2H1d+1        2H1d+2        2H2d-2        2H2d-1        2H2d0         2H2d+1        2H2d+2    
   10    2H1f-3        2H1f-2        2H1f-1        2H1f0         2H1f+1        2H1f+2        2H1f+3        3H1s          3H2s          3H3s      
   11    3H4s          3H1pz         3H1py         3H1px         3H2pz         3H2py         3H2px         3H3pz         3H3py         3H3px     
   12    3H1d-2        3H1d-1        3H1d0         3H1d+1        3H1d+2        3H2d-2        3H2d-1        3H2d0         3H2d+1        3H2d+2    
   13    3H1f-3        3H1f-2        3H1f-1        3H1f0         3H1f+1        3H1f+2        3H1f+3        4H1s          4H2s          4H3s      
   14    4H4s          4H1pz         4H1py         4H1px         4H2pz         4H2py         4H2px         4H3pz         4H3py         4H3px     
   15    4H1d-2        4H1d-1        4H1d0         4H1d+1        4H1d+2        4H2d-2        4H2d-1        4H2d0         4H2d+1        4H2d+2    
   16    4H1f-3        4H1f-2        4H1f-1        4H1f0         4H1f+1        4H1f+2        4H1f+3        5N1s          5N2s          5N3s      
   17    5N4s          5N5s          5N6s          5N7s          5N8s          5N9s          5N10s         5N1pz         5N1py         5N1px     
   18    5N2pz         5N2py         5N2px         5N3pz         5N3py         5N3px         5N4pz         5N4py         5N4px         5N5pz     
   19    5N5py         5N5px         5N6pz         5N6py         5N6px         5N7pz         5N7py         5N7px         5N8pz         5N8py     
   20    5N8px         5N1d-2        5N1d-1        5N1d0         5N1d+1        5N1d+2        5N2d-2        5N2d-1        5N2d0         5N2d+1    
   21    5N2d+2        5N3d-2        5N3d-1        5N3d0         5N3d+1        5N3d+2        5N4d-2        5N4d-1        5N4d0         5N4d+1    
   22    5N4d+2        5N1f-3        5N1f-2        5N1f-1        5N1f0         5N1f+1        5N1f+2        5N1f+3        5N2f-3        5N2f-2    
   23    5N2f-1        5N2f0         5N2f+1        5N2f+2        5N2f+3        5N1g-4        5N1g-3        5N1g-2        5N1g-1        5N1g0     
   24    5N1g+1        5N1g+2        5N1g+3        5N1g+4        6H1s          6H2s          6H3s          6H4s          6H1pz         6H1py     
   25    6H1px         6H2pz         6H2py         6H2px         6H3pz         6H3py         6H3px         6H1d-2        6H1d-1        6H1d0     
   26    6H1d+1        6H1d+2        6H2d-2        6H2d-1        6H2d0         6H2d+1        6H2d+2        6H1f-3        6H1f-2        6H1f-1    
   27    6H1f0         6H1f+1        6H1f+2        6H1f+3        7H1s          7H2s          7H3s          7H4s          7H1pz         7H1py     
   28    7H1px         7H2pz         7H2py         7H2px         7H3pz         7H3py         7H3px         7H1d-2        7H1d-1        7H1d0     
   29    7H1d+1        7H1d+2        7H2d-2        7H2d-1        7H2d0         7H2d+1        7H2d+2        7H1f-3        7H1f-2        7H1f-1    
   30    7H1f0         7H1f+1        7H1f+2        7H1f+3        8H1s          8H2s          8H3s          8H4s          8H1pz         8H1py     
   31    8H1px         8H2pz         8H2py         8H2px         8H3pz         8H3py         8H3px         8H1d-2        8H1d-1        8H1d0     
   32    8H1d+1        8H1d+2        8H2d-2        8H2d-1        8H2d0         8H2d+1        8H2d+2        8H1f-3        8H1f-2        8H1f-1    
   33    8H1f0         8H1f+1        8H1f+2        8H1f+3        9N1s          9N2s          9N3s          9N4s          9N5s          9N6s      
   34    9N7s          9N8s          9N9s          9N10s         9N1pz         9N1py         9N1px         9N2pz         9N2py         9N2px     
   35    9N3pz         9N3py         9N3px         9N4pz         9N4py         9N4px         9N5pz         9N5py         9N5px         9N6pz     
   36    9N6py         9N6px         9N7pz         9N7py         9N7px         9N8pz         9N8py         9N8px         9N1d-2        9N1d-1    
   37    9N1d0         9N1d+1        9N1d+2        9N2d-2        9N2d-1        9N2d0         9N2d+1        9N2d+2        9N3d-2        9N3d-1    
   38    9N3d0         9N3d+1        9N3d+2        9N4d-2        9N4d-1        9N4d0         9N4d+1        9N4d+2        9N1f-3        9N1f-2    
   39    9N1f-1        9N1f0         9N1f+1        9N1f+2        9N1f+3        9N2f-3        9N2f-2        9N2f-1        9N2f0         9N2f+1    
   40    9N2f+2        9N2f+3        9N1g-4        9N1g-3        9N1g-2        9N1g-1        9N1g0         9N1g+1        9N1g+2        9N1g+3    
   41    9N1g+4       10H1s         10H2s         10H3s         10H4s         10H1pz        10H1py        10H1px        10H2pz        10H2py     
   42   10H2px        10H3pz        10H3py        10H3px        10H1d-2       10H1d-1       10H1d0        10H1d+1       10H1d+2       10H2d-2    
   43   10H2d-1       10H2d0        10H2d+1       10H2d+2       10H1f-3       10H1f-2       10H1f-1       10H1f0        10H1f+1       10H1f+2    
   44   10H1f+3       11H1s         11H2s         11H3s         11H4s         11H1pz        11H1py        11H1px        11H2pz        11H2py     
   45   11H2px        11H3pz        11H3py        11H3px        11H1d-2       11H1d-1       11H1d0        11H1d+1       11H1d+2       11H2d-2    
   46   11H2d-1       11H2d0        11H2d+1       11H2d+2       11H1f-3       11H1f-2       11H1f-1       11H1f0        11H1f+1       11H1f+2    
   47   11H1f+3       12H1s         12H2s         12H3s         12H4s         12H1pz        12H1py        12H1px        12H2pz        12H2py     
   48   12H2px        12H3pz        12H3py        12H3px        12H1d-2       12H1d-1       12H1d0        12H1d+1       12H1d+2       12H2d-2    
   49   12H2d-1       12H2d0        12H2d+1       12H2d+2       12H1f-3       12H1f-2       12H1f-1       12H1f0        12H1f+1       12H1f+2    
   50   12H1f+3    
 
 Maximum number of basis functions per shell:   24
 Total number of basis functions:    501
 
 
 Initializing the SAD routines for the initial guess...
 Checking the files required for the initial guess...
 Density files have not been found for the initial guess.
 Generating SCFDENSITIES.N.def2-svp.0
 Generating SCFDENSITIES.H.def2-svp.0
 CPU time [min]:     0.218                   Wall time [min]:     0.136
 
 Character table for point group C1:
 
          E  
    A     1
 
 Number of basis functions per irrep:
    A      87
 
 
 Calculation of overlap integrals...
 CPU time [min]:     0.222                   Wall time [min]:     0.136
 
 Calculation of the square root of the overlap matrix...
 Minimum eigenvalue of the overlap matrix: 0.236491E-01
 CPU time [min]:     0.235                   Wall time [min]:     0.137
 
 Calculation of kinetic energy integrals...
 CPU time [min]:     0.236                   Wall time [min]:     0.137
 Calculation of dipole moment integrals...
 CPU time [min]:     0.236                   Wall time [min]:     0.137
 Calculation of nuclear attraction integrals...
 CPU time [min]:     0.238                   Wall time [min]:     0.137
 
 Calculation of prescreening integrals...
 CPU time [min]:     0.256                   Wall time [min]:     0.137
 
 Calculation of two-center Coulomb integrals...
   1% done.
  13% done.
  24% done.
  35% done.
  47% done.
  60% done.
  72% done.
  86% done.
  97% done.
 100% done.
 CPU time [min]:     0.268                   Wall time [min]:     0.137
 
 Cholesky decomposition of the two-center matrix...
 Reciprocal of the condition number:  0.875911E-05
 CPU time [min]:     0.297                   Wall time [min]:     0.138
 
 
 Running small-basis SCF...

 ************************ 2026-02-26 23:06:41 *************************
 Executing scf...

 @scfsetup: integrals calculated directly
            mrcc/integ direct run
 @scfsetup: calculating on full matrices
            not using symmetry adapted basis
 @scfsetup: diis switched on
 @scfsetup: number of steps to extrapolate from  10
 @scfsetup: tolerance in energy deviation    0.100000E-07
            tolerance in density deviation    0.100000E-08
 @scfsetup: maximum number of iterations: 200
 @scfsetup: restricted closed shell hf calc
 @scfsetup: starting scf from superposition of atomic densities
 @scfsetup: occupation set:
            from initial orbitals
 @scfsetup: Parameter-set for SCF acceleration: normal
 @scfsetup: diis runs from iteration:   2
 @scfsetup: diis runs to iteration: 200
 @scfsetup: diis runs in every iteration
 @scfsetup: diiswatch is disabled                   
 @scfsetup: diis dtol criteria to switch on:      0.0000E+00
           (or the iteration number below is reached)
 @scfsetup: static damping scheme
            iteration step criteria to turn damping off: 3
 @scfsetup: dynamic level shifting
            tolarance in HOMO-LUMO gap:  0.200
            tolarance in density deviation:     0.0000E+00
            iteration step criteria to turn level shifting off: 8
 Allocation of 46.0 Gbytes of memory...
 ======================================================================
 ITERATION STEP   1
 CPU time [min]:     0.043                   Wall time [min]:     0.010
 

 SCF control                  : initial
 Damping factor/level shift   : 0.000/0.200
 DIIS [start/end/frequency]   :   2 /200 /  1

 Constructing Fock-matrix...
 
 Pipek-Mezey localization...
 Step  Convergence
   1   6.162824806624
   2   0.891383418950
   3   0.044571148937
   4   0.000143098028
   5   0.000000263360
   6   0.000000001136
 CPU time [min]:     0.070                   Wall time [min]:     0.010
 
 Constructing local fitting domains...
 Maximum number of atoms in fitting domains:    7
 Average number of atoms in fitting domains:    4.5
 
 First step of Coulomb + first step of exchange...
 Exchange contribution is evaluated for MOs 1 to 15.
   1% done.
  14% done.
  25% done.
  37% done.
  49% done.
  60% done.
  72% done.
  83% done.
 100% done.
 Fitting and assembly step of exchange...
 CPU time [min]:     0.193                   Wall time [min]:     0.012
 
 Second step of Coulomb...
   1% done.
  14% done.
  25% done.
  37% done.
  49% done.
  60% done.
  72% done.
  83% done.
 100% done.
 CPU time [min]:     0.217                   Wall time [min]:     0.013
 
 Gradient norm:      2.4357E+00
 RMS of [F,P]:                                         0.04335574773462
 RMS of difference density:                            0.01579394370615
 Gap [au]:  0.63591313
 ALPHA OCC:  15
 BETA  OCC:  15
 
 ***HARTREE-FOCK ENERGY IN STEP   1 IS       -167.5851065472963910 [AU]
 ======================================================================
 ITERATION STEP   2
 CPU time [min]:     0.229                   Wall time [min]:     0.013
 

 SCF control                  : diis
 Damping factor/level shift   : 0.000/0.000
 DIIS [start/end/frequency]   :   2 /200 /  1

 Constructing Fock-matrix...
 
 Pipek-Mezey localization...
 Step  Convergence
   1   0.201194094783
   2   0.209906620270
   3   0.002232734685
   4   0.000000382484
   5   0.000000000660
 CPU time [min]:     0.253                   Wall time [min]:     0.013
 
 Constructing local fitting domains...
 Maximum number of atoms in fitting domains:    7
 Average number of atoms in fitting domains:    4.5
 
 First step of Coulomb + first step of exchange...
 Exchange contribution is evaluated for MOs 1 to 15.
   1% done.
  14% done.
  25% done.
  37% done.
  49% done.
  60% done.
  72% done.
  83% done.
 100% done.
 Fitting and assembly step of exchange...
 CPU time [min]:     0.359                   Wall time [min]:     0.015
 
 Second step of Coulomb...
   1% done.
  14% done.
  25% done.
  37% done.
  49% done.
  60% done.
  72% done.
  83% done.
 100% done.
 CPU time [min]:     0.383                   Wall time [min]:     0.015
 
 Gradient norm:      3.1894E-01
 DIIS is running in this iteration step.
 RMS of [F,P]:                                         0.00923941874862
 RMS of difference density:                            0.00739264085042
 Gap [au]:  0.51865781
 ALPHA OCC:  15
 BETA  OCC:  15
 
 ***HARTREE-FOCK ENERGY IN STEP   2 IS       -168.3741126314979510 [AU]
 
 Step comparison  Energy Drift [au]  DIIS error drift  Gradient drift
        1            7.8901E-01         3.4116E-02       2.1167E+00
        2            1.6837E+02         1.0000E-09       2.1167E+00
 ======================================================================
 ITERATION STEP   3
 CPU time [min]:     0.398                   Wall time [min]:     0.016
 

 SCF control                  : diis
 Damping factor/level shift   : 0.000/0.000
 DIIS [start/end/frequency]   :   2 /200 /  1

 Constructing Fock-matrix...
 
 Pipek-Mezey localization...
 Step  Convergence
   1   0.220426006428
   2   0.222862193273
   3   0.004824974919
   4   0.000000848306
   5   0.000000000147
 CPU time [min]:     0.422                   Wall time [min]:     0.016
 
 Constructing local fitting domains...
 Local fitting domains are unchanged.
 
 First step of Coulomb + first step of exchange...
 Exchange contribution is evaluated for MOs 1 to 15.
   1% done.
  14% done.
  25% done.
  37% done.
  49% done.
  60% done.
  72% done.
  83% done.
 100% done.
 Fitting and assembly step of exchange...
 CPU time [min]:     0.525                   Wall time [min]:     0.018
 
 Second step of Coulomb...
   1% done.
  14% done.
  25% done.
  37% done.
  49% done.
  60% done.
  72% done.
  83% done.
 100% done.
 CPU time [min]:     0.548                   Wall time [min]:     0.018
 
 Gradient norm:      1.1616E-01
 DIIS is running in this iteration step.
 RMS of [F,P]:                                         0.00438398379104
 RMS of difference density:                            0.00220803749968
 Gap [au]:  0.56477686
 ALPHA OCC:  15
 BETA  OCC:  15
 
 ***HARTREE-FOCK ENERGY IN STEP   3 IS       -168.4315751655731788 [AU]
 
 Step comparison  Energy Drift [au]  DIIS error drift  Gradient drift
        2            5.7463E-02         4.8554E-03       2.0277E-01
 ======================================================================
 ITERATION STEP   4
 CPU time [min]:     0.617                   Wall time [min]:     0.019
 

 SCF control                  : diis
 Damping factor/level shift   : 0.000/0.000
 DIIS [start/end/frequency]   :   2 /200 /  1

 Constructing Fock-matrix...
 
 Pipek-Mezey localization...
 Step  Convergence
   1   0.233186368657
   2   0.251164155127
   3   0.017085678187
   4   0.000002613103
   5   0.000000000411
 CPU time [min]:     0.640                   Wall time [min]:     0.020
 
 Constructing local fitting domains...
 Local fitting domains are unchanged.
 
 First step of Coulomb + first step of exchange...
 Exchange contribution is evaluated for MOs 1 to 15.
   1% done.
  14% done.
  25% done.
  37% done.
  49% done.
  60% done.
  72% done.
  83% done.
 100% done.
 Fitting and assembly step of exchange...
 CPU time [min]:     0.744                   Wall time [min]:     0.021
 
 Second step of Coulomb...
   1% done.
  14% done.
  25% done.
  37% done.
  49% done.
  60% done.
  72% done.
  83% done.
 100% done.
 CPU time [min]:     0.767                   Wall time [min]:     0.022
 
 Gradient norm:      2.4104E-02
 DIIS is running in this iteration step.
 RMS of [F,P]:                                         0.00055074649258
 RMS of difference density:                            0.00059447425786
 Gap [au]:  0.55719701
 ALPHA OCC:  15
 BETA  OCC:  15
 
 ***HARTREE-FOCK ENERGY IN STEP   4 IS       -168.4470654926537350 [AU]
 
 Step comparison  Energy Drift [au]  DIIS error drift  Gradient drift
        3            1.5490E-02         3.8332E-03       9.2060E-02
 ======================================================================
 ITERATION STEP   5
 CPU time [min]:     0.783                   Wall time [min]:     0.022
 

 SCF control                  : diis
 Damping factor/level shift   : 0.000/0.000
 DIIS [start/end/frequency]   :   2 /200 /  1

 Constructing Fock-matrix...
 
 Pipek-Mezey localization...
 Step  Convergence
   1   0.235997923285
   2   0.229510831420
   3   0.001698326303
   4   0.000000509266
   5   0.000000000331
 CPU time [min]:     0.806                   Wall time [min]:     0.023
 
 Constructing local fitting domains...
 Local fitting domains are unchanged.
 
 First step of Coulomb + first step of exchange...
 Exchange contribution is evaluated for MOs 1 to 15.
   1% done.
  14% done.
  25% done.
  37% done.
  49% done.
  60% done.
  72% done.
  83% done.
 100% done.
 Fitting and assembly step of exchange...
 CPU time [min]:     0.910                   Wall time [min]:     0.024
 
 Second step of Coulomb...
   1% done.
  14% done.
  25% done.
  37% done.
  49% done.
  60% done.
  72% done.
  83% done.
 100% done.
 CPU time [min]:     0.933                   Wall time [min]:     0.024
 
 Gradient norm:      2.3578E-03
 DIIS is running in this iteration step.
 RMS of [F,P]:                                         0.00009481338116
 RMS of difference density:                            0.00009123957448
 Gap [au]:  0.55684886
 ALPHA OCC:  15
 BETA  OCC:  15
 
 ***HARTREE-FOCK ENERGY IN STEP   5 IS       -168.4475581389191348 [AU]
 
 Step comparison  Energy Drift [au]  DIIS error drift  Gradient drift
        4            4.9265E-04         4.5593E-04       2.1746E-02
 ======================================================================
 ITERATION STEP   6
 CPU time [min]:     0.948                   Wall time [min]:     0.025
 

 SCF control                  : diis
 Damping factor/level shift   : 0.000/0.000
 DIIS [start/end/frequency]   :   2 /200 /  1

 Constructing Fock-matrix...
 
 Pipek-Mezey localization...
 Step  Convergence
   1   0.183264368559
   2   0.179443126966
   3   0.001499496798
   4   0.000001029270
   5   0.000000003315
 CPU time [min]:     0.972                   Wall time [min]:     0.025
 
 Constructing local fitting domains...
 Local fitting domains are unchanged.
 
 First step of Coulomb + first step of exchange...
 Exchange contribution is evaluated for MOs 1 to 15.
   1% done.
  14% done.
  25% done.
  37% done.
  49% done.
  60% done.
  72% done.
  83% done.
 100% done.
 Fitting and assembly step of exchange...
 CPU time [min]:     1.076                   Wall time [min]:     0.027
 
 Second step of Coulomb...
   1% done.
  14% done.
  25% done.
  37% done.
  49% done.
  60% done.
  72% done.
  83% done.
 100% done.
 CPU time [min]:     1.100                   Wall time [min]:     0.027
 
 Gradient norm:      5.6673E-04
 DIIS is running in this iteration step.
 RMS of [F,P]:                                         0.00001477507257
 RMS of difference density:                            0.00001694226222
 Gap [au]:  0.55703205
 ALPHA OCC:  15
 BETA  OCC:  15
 
 ***HARTREE-FOCK ENERGY IN STEP   6 IS       -168.4475679346402330 [AU]
 
 Step comparison  Energy Drift [au]  DIIS error drift  Gradient drift
        5            9.7957E-06         8.0038E-05       1.7911E-03
 ======================================================================
 ITERATION STEP   7
 CPU time [min]:     1.115                   Wall time [min]:     0.028
 

 SCF control                  : diis
 Damping factor/level shift   : 0.000/0.000
 DIIS [start/end/frequency]   :   2 /200 /  1

 Constructing Fock-matrix...
 
 Pipek-Mezey localization...
 Step  Convergence
   1   0.176406700828
   2   0.171862203688
   3   0.000146127923
   4   0.000000051032
   5   0.000000000119
   6   0.000000000001
 CPU time [min]:     1.139                   Wall time [min]:     0.028
 
 Constructing local fitting domains...
 Local fitting domains are unchanged.
 
 First step of Coulomb + first step of exchange...
 Exchange contribution is evaluated for MOs 1 to 15.
   1% done.
  14% done.
  25% done.
  37% done.
  49% done.
  60% done.
  72% done.
  83% done.
 100% done.
 Fitting and assembly step of exchange...
 CPU time [min]:     1.242                   Wall time [min]:     0.030
 
 Second step of Coulomb...
   1% done.
  14% done.
  25% done.
  37% done.
  49% done.
  60% done.
  72% done.
  83% done.
 100% done.
 CPU time [min]:     1.266                   Wall time [min]:     0.030
 
 Gradient norm:      3.0475E-04
 DIIS is running in this iteration step.
 RMS of [F,P]:                                         0.00000583640130
 RMS of difference density:                            0.00000511180666
 Gap [au]:  0.55690214
 ALPHA OCC:  15
 BETA  OCC:  15
 
 ***HARTREE-FOCK ENERGY IN STEP   7 IS       -168.4475676519509477 [AU]
 
 Step comparison  Energy Drift [au]  DIIS error drift  Gradient drift
        6           -2.8269E-07         8.9387E-06       2.6197E-04
 Warning! The energy goes uphill (with respect to previous step).
 ======================================================================
 ITERATION STEP   8
 CPU time [min]:     1.282                   Wall time [min]:     0.030
 

 SCF control                  : diis
 Damping factor/level shift   : 0.000/0.000
 DIIS [start/end/frequency]   :   2 /200 /  1

 Constructing Fock-matrix...
 
 Pipek-Mezey localization...
 Step  Convergence
   1   0.174408876406
   2   0.171285670344
   3   0.000117808601
   4   0.000000044895
   5   0.000000000255
   6   0.000000000002
   7   0.000000000000
 CPU time [min]:     1.305                   Wall time [min]:     0.031
 
 Constructing local fitting domains...
 Local fitting domains are unchanged.
 
 First step of Coulomb + first step of exchange...
 Exchange contribution is evaluated for MOs 1 to 15.
   1% done.
  14% done.
  25% done.
  37% done.
  49% done.
  60% done.
  72% done.
  83% done.
 100% done.
 Fitting and assembly step of exchange...
 CPU time [min]:     1.409                   Wall time [min]:     0.032
 
 Second step of Coulomb...
   1% done.
  14% done.
  25% done.
  37% done.
  49% done.
  60% done.
  72% done.
  83% done.
 100% done.
 CPU time [min]:     1.432                   Wall time [min]:     0.033
 
 Gradient norm:      8.3460E-05
 DIIS is running in this iteration step.
 RMS of [F,P]:                                         0.00000155013551
 RMS of difference density:                            0.00000304340935
 Gap [au]:  0.55689851
 ALPHA OCC:  15
 BETA  OCC:  15
 
 ***HARTREE-FOCK ENERGY IN STEP   8 IS       -168.4475675524667508 [AU]
 
 Step comparison  Energy Drift [au]  DIIS error drift  Gradient drift
        7           -9.9484E-08         4.2863E-06       2.2129E-04
 Warning! The energy goes uphill (with respect to previous step).
 ======================================================================
 ITERATION STEP   9
 CPU time [min]:     1.447                   Wall time [min]:     0.033
 

 SCF control                  : diis
 Damping factor/level shift   : 0.000/0.000
 DIIS [start/end/frequency]   :   2 /200 /  1

 Constructing Fock-matrix...
 
 Pipek-Mezey localization...
 Step  Convergence
   1   0.176997984249
   2   0.172579531013
   3   0.000250474795
   4   0.000000056876
   5   0.000000000194
   6   0.000000000002
   7   0.000000000000
 CPU time [min]:     1.471                   Wall time [min]:     0.033
 
 Constructing local fitting domains...
 Local fitting domains are unchanged.
 
 First step of Coulomb + first step of exchange...
 Exchange contribution is evaluated for MOs 1 to 15.
   1% done.
  14% done.
  25% done.
  37% done.
  49% done.
  60% done.
  72% done.
  83% done.
 100% done.
 Fitting and assembly step of exchange...
 CPU time [min]:     1.574                   Wall time [min]:     0.035
 
 Second step of Coulomb...
   1% done.
  14% done.
  25% done.
  37% done.
  49% done.
  60% done.
  72% done.
  83% done.
 100% done.
 CPU time [min]:     1.598                   Wall time [min]:     0.035
 
 Gradient norm:      9.0480E-06
 DIIS is running in this iteration step.
 RMS of [F,P]:                                         0.00000023062330
 RMS of difference density:                            0.00000046227765
 Gap [au]:  0.55689661
 ALPHA OCC:  15
 BETA  OCC:  15
 
 ***HARTREE-FOCK ENERGY IN STEP   9 IS       -168.4475674784449097 [AU]
 
 Step comparison  Energy Drift [au]  DIIS error drift  Gradient drift
        8           -7.4022E-08         1.3195E-06       7.4412E-05
 Warning! The energy goes uphill (with respect to previous step).
 ======================================================================
 ITERATION STEP  10
 CPU time [min]:     1.613                   Wall time [min]:     0.036
 

 SCF control                  : diis
 Damping factor/level shift   : 0.000/0.000
 DIIS [start/end/frequency]   :   2 /200 /  1

 Constructing Fock-matrix...
 
 Pipek-Mezey localization...
 Step  Convergence
   1   0.176282300340
   2   0.171056854010
   3   0.000207009882
   4   0.000000038295
   5   0.000000000075
   6   0.000000000000
 CPU time [min]:     1.636                   Wall time [min]:     0.036
 
 Constructing local fitting domains...
 Local fitting domains are unchanged.
 
 First step of Coulomb + first step of exchange...
 Exchange contribution is evaluated for MOs 1 to 15.
   1% done.
  14% done.
  25% done.
  37% done.
  49% done.
  60% done.
  72% done.
  83% done.
 100% done.
 Fitting and assembly step of exchange...
 CPU time [min]:     1.740                   Wall time [min]:     0.038
 
 Second step of Coulomb...
   1% done.
  14% done.
  25% done.
  37% done.
  49% done.
  60% done.
  72% done.
  83% done.
 100% done.
 CPU time [min]:     1.764                   Wall time [min]:     0.038
 
 Gradient norm:      1.8110E-06
 DIIS is running in this iteration step.
 RMS of [F,P]:                                         0.00000005148528
 RMS of difference density:                            0.00000008570389
 Gap [au]:  0.55689668
 ALPHA OCC:  15
 BETA  OCC:  15
 
 ***HARTREE-FOCK ENERGY IN STEP  10 IS       -168.4475674796318287 [AU]
 
 Step comparison  Energy Drift [au]  DIIS error drift  Gradient drift
        9            1.1869E-09         1.7914E-07       7.2370E-06
 ======================================================================
 ITERATION STEP  11
 CPU time [min]:     1.780                   Wall time [min]:     0.038
 

 SCF control                  : diis
 Damping factor/level shift   : 0.000/0.000
 DIIS [start/end/frequency]   :   2 /200 /  1

 Constructing Fock-matrix...
 
 Pipek-Mezey localization...
 Step  Convergence
   1   0.177684687242
   2   0.170976142384
   3   0.000247132814
   4   0.000000036184
   5   0.000000000059
   6   0.000000000000
 CPU time [min]:     1.804                   Wall time [min]:     0.039
 
 Constructing local fitting domains...
 Local fitting domains are unchanged.
 
 First step of Coulomb + first step of exchange...
 Exchange contribution is evaluated for MOs 1 to 15.
   1% done.
  14% done.
  25% done.
  37% done.
  49% done.
  60% done.
  72% done.
  83% done.
 100% done.
 Fitting and assembly step of exchange...
 CPU time [min]:     1.907                   Wall time [min]:     0.041
 
 Second step of Coulomb...
   1% done.
  14% done.
  25% done.
  37% done.
  49% done.
  60% done.
  72% done.
  83% done.
 100% done.
 CPU time [min]:     1.930                   Wall time [min]:     0.041
 
 Gradient norm:      6.4048E-07
 DIIS is running in this iteration step.
 RMS of [F,P]:                                         0.00000002096743
 RMS of difference density:                            0.00000003632686
 Gap [au]:  0.55689693
 ALPHA OCC:  15
 BETA  OCC:  15
 
 ***HARTREE-FOCK ENERGY IN STEP  11 IS       -168.4475674808958274 [AU]
 
 Step comparison  Energy Drift [au]  DIIS error drift  Gradient drift
       10            1.2640E-09         3.0518E-08       1.1706E-06
 ======================================================================
 ITERATION STEP  12
 CPU time [min]:     1.946                   Wall time [min]:     0.041
 

 SCF control                  : diis
 Damping factor/level shift   : 0.000/0.000
 DIIS [start/end/frequency]   :   2 /200 /  1

 Constructing Fock-matrix...
 
 Pipek-Mezey localization...
 Step  Convergence
   1   0.187791188015
   2   0.180623008518
   3   0.000178877874
   4   0.000000083119
   5   0.000000000129
   6   0.000000000001
 CPU time [min]:     1.969                   Wall time [min]:     0.042
 
 Constructing local fitting domains...
 Local fitting domains are unchanged.
 
 First step of Coulomb + first step of exchange...
 Exchange contribution is evaluated for MOs 1 to 15.
   1% done.
  14% done.
  25% done.
  37% done.
  49% done.
  60% done.
  72% done.
  83% done.
 100% done.
 Fitting and assembly step of exchange...
 CPU time [min]:     2.073                   Wall time [min]:     0.043
 
 Second step of Coulomb...
   1% done.
  14% done.
  25% done.
  37% done.
  49% done.
  60% done.
  72% done.
  83% done.
 100% done.
 CPU time [min]:     2.097                   Wall time [min]:     0.044
 
 Gradient norm:      1.6462E-07
 DIIS is running in this iteration step.
 RMS of [F,P]:                                         0.00000000561459
 RMS of difference density:                            0.00000001145567
 Gap [au]:  0.55689695
 ALPHA OCC:  15
 BETA  OCC:  15
 
 ***HARTREE-FOCK ENERGY IN STEP  12 IS       -168.4475674815781190 [AU]
 
 Step comparison  Energy Drift [au]  DIIS error drift  Gradient drift
       11            6.8229E-10         1.5353E-08       4.7586E-07
 ======================================================================
 ITERATION STEP  13
 CPU time [min]:     2.112                   Wall time [min]:     0.044
 

 SCF control                  : diis
 Damping factor/level shift   : 0.000/0.000
 DIIS [start/end/frequency]   :   2 /200 /  1

 Constructing Fock-matrix...
 
 Pipek-Mezey localization...
 Step  Convergence
   1   0.184275787956
   2   0.181885873424
   3   0.000921575702
   4   0.000000109193
   5   0.000000000119
   6   0.000000000001
 CPU time [min]:     2.135                   Wall time [min]:     0.044
 
 Constructing local fitting domains...
 Local fitting domains are unchanged.
 
 First step of Coulomb + first step of exchange...
 Exchange contribution is evaluated for MOs 1 to 15.
   1% done.
  14% done.
  25% done.
  37% done.
  49% done.
  60% done.
  72% done.
  83% done.
 100% done.
 Fitting and assembly step of exchange...
 CPU time [min]:     2.239                   Wall time [min]:     0.046
 
 Second step of Coulomb...
   1% done.
  14% done.
  25% done.
  37% done.
  49% done.
  60% done.
  72% done.
  83% done.
 100% done.
 CPU time [min]:     2.262                   Wall time [min]:     0.046
 
 Gradient norm:      3.4102E-08
 DIIS is running in this iteration step.
 RMS of [F,P]:                                         0.00000000111287
 RMS of difference density:                            0.00000000221196
 Gap [au]:  0.55689696
 ALPHA OCC:  15
 BETA  OCC:  15
 
 ***HARTREE-FOCK ENERGY IN STEP  13 IS       -168.4475674816366677 [AU]
 
 Step comparison  Energy Drift [au]  DIIS error drift  Gradient drift
       12            5.8549E-11         4.5017E-09       1.3052E-07
 ======================================================================
 ITERATION STEP  14
 CPU time [min]:     2.278                   Wall time [min]:     0.047
 

 SCF control                  : diis
 Damping factor/level shift   : 0.000/0.000
 DIIS [start/end/frequency]   :   2 /200 /  1

 Constructing Fock-matrix...
 
 Pipek-Mezey localization...
 Step  Convergence
   1   0.322735264786
   2   0.304710668232
   3   0.003227062692
   4   0.000000697835
   5   0.000000000387
   6   0.000000000002
   7   0.000000000000
 CPU time [min]:     2.302                   Wall time [min]:     0.047
 
 Constructing local fitting domains...
 Local fitting domains are unchanged.
 
 First step of Coulomb + first step of exchange...
 Exchange contribution is evaluated for MOs 1 to 15.
   1% done.
  14% done.
  25% done.
  37% done.
  49% done.
  60% done.
  72% done.
  83% done.
 100% done.
 Fitting and assembly step of exchange...
 CPU time [min]:     2.406                   Wall time [min]:     0.049
 
 Second step of Coulomb...
   1% done.
  14% done.
  25% done.
  37% done.
  49% done.
  60% done.
  72% done.
  83% done.
 100% done.
 CPU time [min]:     2.430                   Wall time [min]:     0.049
 
 Gradient norm:      1.0400E-08
 DIIS is running in this iteration step.
 RMS of [F,P]:                                         0.00000000025002
 RMS of difference density:                            0.00000000037210
 Gap [au]:  0.55689696
 ALPHA OCC:  15
 BETA  OCC:  15
 
 ***HARTREE-FOCK ENERGY IN STEP  14 IS       -168.4475674815991795 [AU]
 
 Step comparison  Energy Drift [au]  DIIS error drift  Gradient drift
       13           -3.7488E-11         8.6285E-10       2.3701E-08
 Warning! The energy goes uphill (with respect to previous step).
 
 The SCF iteration has converged.
 An extra iteration will be performed to calculate accurate SCF energy.
 
 ======================================================================
 ITERATION STEP  15
 CPU time [min]:     2.451                   Wall time [min]:     0.050
 

 SCF control                  : diis
 Damping factor/level shift   : 0.000/0.000
 DIIS [start/end/frequency]   :   2 /200 /  1

 Constructing Fock-matrix...
 
 Pipek-Mezey localization...
 Step  Convergence
   1   0.177789340358
   2   0.171833218933
   3   0.000199548380
   4   0.000000049026
   5   0.000000000176
   6   0.000000000001
   7   0.000000000000
 CPU time [min]:     2.474                   Wall time [min]:     0.050
 
 Constructing local fitting domains...
 Maximum number of atoms in fitting domains:   12
 Average number of atoms in fitting domains:    9.3
 
 First step of Coulomb + first step of exchange...
 Exchange contribution is evaluated for MOs 1 to 15.
   1% done.
  14% done.
  25% done.
  37% done.
  49% done.
  60% done.
  72% done.
  83% done.
 100% done.
 Fitting and assembly step of exchange...
 CPU time [min]:     2.610                   Wall time [min]:     0.052
 
 Second step of Coulomb...
   1% done.
  14% done.
  25% done.
  37% done.
  49% done.
  60% done.
  72% done.
  83% done.
 100% done.
 CPU time [min]:     2.634                   Wall time [min]:     0.053
 
 Gradient norm:      8.0482E-05
 RMS of [F,P]:                                         0.00000229878510
 RMS of difference density:                            0.00000211723344
 Gap [au]:  0.55692322
 ALPHA OCC:  15
 BETA  OCC:  15
 
 ***HARTREE-FOCK ENERGY IN STEP  15 IS       -168.4478298979965984 [AU]
 
 Step comparison  Energy Drift [au]  DIIS error drift  Gradient drift
       14            2.6242E-04        -2.2985E-06      -8.0472E-05
 Warning! The DIIS error goes uphill (with respect to previous step).
 Warning! The DIIS error goes uphill (with respect to step  14 ).
 Warning! The gradient goes uphill (with respect to previous step).
 Warning! The gradient goes uphill (with respect to step  14 ).
 ======================================================================
 
 SUCCESS...
 THE SCF ITERATION HAS CONVERGED!
 
                   A   
 FINAL ALPHA OCC:  15
 FINAL BETA  OCC:  15
 
 ***FINAL HARTREE-FOCK ENERGY:       -168.4478298979965984 [AU]
 
 Orbital energies [au]:
      Irrep         Alpha          Beta
    1   A        -15.551191     -15.551191
    2   A        -15.540095     -15.540095
    3   A        -15.512333     -15.512333
    4   A         -1.122865      -1.122865
    5   A         -1.112102      -1.112102
    6   A         -1.085810      -1.085810
    7   A         -0.628859      -0.628859
    8   A         -0.626231      -0.626231
    9   A         -0.616102      -0.616102
   10   A         -0.615942      -0.615942
   11   A         -0.591142      -0.591142
   12   A         -0.587692      -0.587692
   13   A         -0.429983      -0.429983
   14   A         -0.419398      -0.419398
   15   A         -0.394093      -0.394093
 
   16   A          0.162830       0.162830
   17   A          0.172997       0.172997
   18   A          0.213742       0.213742
   19   A          0.260659       0.260659
   20   A          0.265485       0.265485
   21   A          0.268418       0.268418
   22   A          0.270054       0.270054
   23   A          0.297652       0.297652
   24   A          0.369215       0.369215
   25   A          0.717832       0.717832
   26   A          0.727865       0.727865
   27   A          0.732031       0.732031
   28   A          0.733125       0.733125
   29   A          0.765559       0.765559
   30   A          0.782585       0.782585
   31   A          0.876565       0.876565
   32   A          0.880597       0.880597
   33   A          0.913814       0.913814
   34   A          0.989245       0.989245
   35   A          1.013451       1.013451
   36   A          1.045210       1.045210
   37   A          1.082793       1.082793
   38   A          1.091839       1.091839
   39   A          1.092851       1.092851
   40   A          1.095238       1.095238
   41   A          1.125491       1.125491
   42   A          1.129820       1.129820
   43   A          1.140449       1.140449
   44   A          1.154030       1.154030
   45   A          1.310904       1.310904
   46   A          1.448176       1.448176
   47   A          1.458820       1.458820
   48   A          1.459003       1.459003
   49   A          1.465882       1.465882
   50   A          1.485973       1.485973
   51   A          1.538575       1.538575
   52   A          1.858068       1.858068
   53   A          1.865583       1.865583
   54   A          1.892189       1.892189
   55   A          1.956537       1.956537
   56   A          1.963710       1.963710
   57   A          2.005750       2.005750
   58   A          2.054977       2.054977
   59   A          2.070542       2.070542
   60   A          2.073424       2.073424
   61   A          2.073530       2.073530
   62   A          2.103433       2.103433
   63   A          2.161787       2.161787
   64   A          2.407288       2.407288
   65   A          2.412593       2.412593
   66   A          2.417819       2.417819
   67   A          2.417987       2.417987
   68   A          2.443738       2.443738
   69   A          2.466977       2.466977
   70   A          2.744144       2.744144
   71   A          2.747995       2.747995
   72   A          2.787667       2.787667
   73   A          3.142719       3.142719
   74   A          3.145459       3.145459
   75   A          3.154681       3.154681
   76   A          3.154684       3.154684
   77   A          3.183656       3.183656
   78   A          3.187968       3.187968
   79   A          3.249076       3.249076
   80   A          3.258143       3.258143
   81   A          3.297916       3.297916
   82   A          3.677923       3.677923
   83   A          3.690756       3.690756
   84   A          3.691384       3.691384
   85   A          3.691866       3.691866
   86   A          3.726311       3.726311
   87   A          3.756171       3.756171
 
 RETURNING FROM SCF ALGORITHM
 ======================================================================

 ************************ 2026-02-26 23:06:45 *************************
 Executing integ...

 Allocation of 46.0 Gbytes of memory...
 
 
 Number of atoms:                 12
 Charge:                           0
 Number of electrons:             30
 Number of core electrons:         6
 Spin multiplicity:                1
 
                 Cartesian coordinates [bohr]      Atomic mass [AMU]  Z
   1  N     6.82182577    2.87346447    7.72099687    14.003074       7
   2  H     8.36625160    2.20896759    8.68871146     1.007825       1
   3  H     7.48639849    3.84114800    6.17641118     1.007825       1
   4  H     5.85401804    1.32911599    7.05654762     1.007825       1
   5  N     7.72105127    6.82177201   12.56860613    14.003074       7
   6  H     7.05646455    5.85409719   11.02403942     1.007825       1
   7  H     8.68882825    8.36611725   11.90418158     1.007825       1
   8  H     6.17659278    7.48627216   13.53633668     1.007825       1
   9  N     7.72105127   16.51701190   12.56860613    14.003074       7
  10  H     7.05646455   15.54933707   11.02403942     1.007825       1
  11  H     8.68882825   18.06135713   11.90418158     1.007825       1
  12  H     6.17659278   17.18151205   13.53633668     1.007825       1
 
 This molecule is an asymmetric top.
 
 Point group: C1  
 Computational point group: C1  
 
 Cartesian coordinates in standard orientation [bohr]
   1  N    -6.57935151   -1.29677927    0.09743045
   2  H    -6.85389549    0.01505297   -1.30506751
   3  H    -6.08126508   -2.96171282   -0.76496125
   4  H    -8.29522924   -1.58665705    0.95468850
   5  N    -1.33616564    2.21966971   -0.10417074
   6  H    -2.74769182    0.96386027    0.33661596
   7  H    -0.01323401    1.25311799   -1.14276794
   8  H    -0.48931835    2.73776122    1.56251631
   9  N     7.91408649   -0.68307545   -0.03647662
  10  H     6.50256031   -1.93888489    0.40431008
  11  H     9.23701812   -1.64962717   -1.07507382
  12  H     8.76093379   -0.16498394    1.63021043
 
 Nuclear repulsion energy [au]:         68.058685887881
 
 
 Basis set information:
 
 Maximum angular momentum: g
 Maximum number of contracted Gaussians:   11
 Maximum number of primitive Gaussians:    14
 Spherical harmonic GTOs are used.
 
 
 Conventional basis set:
 
   1  N  aug-cc-pvdz [ 10s 5p 2d | 4s 3p 2d ]
   2  H  aug-cc-pvdz [ 5s 2p | 3s 2p ]
   3  H  aug-cc-pvdz [ 5s 2p | 3s 2p ]
   4  H  aug-cc-pvdz [ 5s 2p | 3s 2p ]
   5  N  aug-cc-pvdz [ 10s 5p 2d | 4s 3p 2d ]
   6  H  aug-cc-pvdz [ 5s 2p | 3s 2p ]
   7  H  aug-cc-pvdz [ 5s 2p | 3s 2p ]
   8  H  aug-cc-pvdz [ 5s 2p | 3s 2p ]
   9  N  aug-cc-pvdz [ 10s 5p 2d | 4s 3p 2d ]
  10  H  aug-cc-pvdz [ 5s 2p | 3s 2p ]
  11  H  aug-cc-pvdz [ 5s 2p | 3s 2p ]
  12  H  aug-cc-pvdz [ 5s 2p | 3s 2p ]
 
 Basis functions:
            1             2             3             4             5             6             7             8             9            10
    0    1N1s          1N2s          1N3s          1N4s          1N1pz         1N1py         1N1px         1N2pz         1N2py         1N2px     
    1    1N3pz         1N3py         1N3px         1N1d-2        1N1d-1        1N1d0         1N1d+1        1N1d+2        1N2d-2        1N2d-1    
    2    1N2d0         1N2d+1        1N2d+2        2H1s          2H2s          2H3s          2H1pz         2H1py         2H1px         2H2pz     
    3    2H2py         2H2px         3H1s          3H2s          3H3s          3H1pz         3H1py         3H1px         3H2pz         3H2py     
    4    3H2px         4H1s          4H2s          4H3s          4H1pz         4H1py         4H1px         4H2pz         4H2py         4H2px     
    5    5N1s          5N2s          5N3s          5N4s          5N1pz         5N1py         5N1px         5N2pz         5N2py         5N2px     
    6    5N3pz         5N3py         5N3px         5N1d-2        5N1d-1        5N1d0         5N1d+1        5N1d+2        5N2d-2        5N2d-1    
    7    5N2d0         5N2d+1        5N2d+2        6H1s          6H2s          6H3s          6H1pz         6H1py         6H1px         6H2pz     
    8    6H2py         6H2px         7H1s          7H2s          7H3s          7H1pz         7H1py         7H1px         7H2pz         7H2py     
    9    7H2px         8H1s          8H2s          8H3s          8H1pz         8H1py         8H1px         8H2pz         8H2py         8H2px     
   10    9N1s          9N2s          9N3s          9N4s          9N1pz         9N1py         9N1px         9N2pz         9N2py         9N2px     
   11    9N3pz         9N3py         9N3px         9N1d-2        9N1d-1        9N1d0         9N1d+1        9N1d+2        9N2d-2        9N2d-1    
   12    9N2d0         9N2d+1        9N2d+2       10H1s         10H2s         10H3s         10H1pz        10H1py        10H1px        10H2pz     
   13   10H2py        10H2px        11H1s         11H2s         11H3s         11H1pz        11H1py        11H1px        11H2pz        11H2py     
   14   11H2px        12H1s         12H2s         12H3s         12H1pz        12H1py        12H1px        12H2pz        12H2py        12H2px     
 
 Maximum number of basis functions per shell:   10
 Total number of basis functions:    150
 
 
 Fitting basis set for the SCF calculation:
 
   1  N  aug-cc-pvdz-ri-jk [ 11s 8p 6d 3f | 11s 8p 6d 3f ]
   2  H  aug-cc-pvdz-ri-jk [ 5s 4p 3d | 5s 4p 3d ]
   3  H  aug-cc-pvdz-ri-jk [ 5s 4p 3d | 5s 4p 3d ]
   4  H  aug-cc-pvdz-ri-jk [ 5s 4p 3d | 5s 4p 3d ]
   5  N  aug-cc-pvdz-ri-jk [ 11s 8p 6d 3f | 11s 8p 6d 3f ]
   6  H  aug-cc-pvdz-ri-jk [ 5s 4p 3d | 5s 4p 3d ]
   7  H  aug-cc-pvdz-ri-jk [ 5s 4p 3d | 5s 4p 3d ]
   8  H  aug-cc-pvdz-ri-jk [ 5s 4p 3d | 5s 4p 3d ]
   9  N  aug-cc-pvdz-ri-jk [ 11s 8p 6d 3f | 11s 8p 6d 3f ]
  10  H  aug-cc-pvdz-ri-jk [ 5s 4p 3d | 5s 4p 3d ]
  11  H  aug-cc-pvdz-ri-jk [ 5s 4p 3d | 5s 4p 3d ]
  12  H  aug-cc-pvdz-ri-jk [ 5s 4p 3d | 5s 4p 3d ]
 
 Basis functions:
            1             2             3             4             5             6             7             8             9            10
    0    1N1s          1N2s          1N3s          1N4s          1N5s          1N6s          1N7s          1N8s          1N9s          1N10s     
    1    1N11s         1N1pz         1N1py         1N1px         1N2pz         1N2py         1N2px         1N3pz         1N3py         1N3px     
    2    1N4pz         1N4py         1N4px         1N5pz         1N5py         1N5px         1N6pz         1N6py         1N6px         1N7pz     
    3    1N7py         1N7px         1N8pz         1N8py         1N8px         1N1d-2        1N1d-1        1N1d0         1N1d+1        1N1d+2    
    4    1N2d-2        1N2d-1        1N2d0         1N2d+1        1N2d+2        1N3d-2        1N3d-1        1N3d0         1N3d+1        1N3d+2    
    5    1N4d-2        1N4d-1        1N4d0         1N4d+1        1N4d+2        1N5d-2        1N5d-1        1N5d0         1N5d+1        1N5d+2    
    6    1N6d-2        1N6d-1        1N6d0         1N6d+1        1N6d+2        1N1f-3        1N1f-2        1N1f-1        1N1f0         1N1f+1    
    7    1N1f+2        1N1f+3        1N2f-3        1N2f-2        1N2f-1        1N2f0         1N2f+1        1N2f+2        1N2f+3        1N3f-3    
    8    1N3f-2        1N3f-1        1N3f0         1N3f+1        1N3f+2        1N3f+3        2H1s          2H2s          2H3s          2H4s      
    9    2H5s          2H1pz         2H1py         2H1px         2H2pz         2H2py         2H2px         2H3pz         2H3py         2H3px     
   10    2H4pz         2H4py         2H4px         2H1d-2        2H1d-1        2H1d0         2H1d+1        2H1d+2        2H2d-2        2H2d-1    
   11    2H2d0         2H2d+1        2H2d+2        2H3d-2        2H3d-1        2H3d0         2H3d+1        2H3d+2        3H1s          3H2s      
   12    3H3s          3H4s          3H5s          3H1pz         3H1py         3H1px         3H2pz         3H2py         3H2px         3H3pz     
   13    3H3py         3H3px         3H4pz         3H4py         3H4px         3H1d-2        3H1d-1        3H1d0         3H1d+1        3H1d+2    
   14    3H2d-2        3H2d-1        3H2d0         3H2d+1        3H2d+2        3H3d-2        3H3d-1        3H3d0         3H3d+1        3H3d+2    
   15    4H1s          4H2s          4H3s          4H4s          4H5s          4H1pz         4H1py         4H1px         4H2pz         4H2py     
   16    4H2px         4H3pz         4H3py         4H3px         4H4pz         4H4py         4H4px         4H1d-2        4H1d-1        4H1d0     
   17    4H1d+1        4H1d+2        4H2d-2        4H2d-1        4H2d0         4H2d+1        4H2d+2        4H3d-2        4H3d-1        4H3d0     
   18    4H3d+1        4H3d+2        5N1s          5N2s          5N3s          5N4s          5N5s          5N6s          5N7s          5N8s      
   19    5N9s          5N10s         5N11s         5N1pz         5N1py         5N1px         5N2pz         5N2py         5N2px         5N3pz     
   20    5N3py         5N3px         5N4pz         5N4py         5N4px         5N5pz         5N5py         5N5px         5N6pz         5N6py     
   21    5N6px         5N7pz         5N7py         5N7px         5N8pz         5N8py         5N8px         5N1d-2        5N1d-1        5N1d0     
   22    5N1d+1        5N1d+2        5N2d-2        5N2d-1        5N2d0         5N2d+1        5N2d+2        5N3d-2        5N3d-1        5N3d0     
   23    5N3d+1        5N3d+2        5N4d-2        5N4d-1        5N4d0         5N4d+1        5N4d+2        5N5d-2        5N5d-1        5N5d0     
   24    5N5d+1        5N5d+2        5N6d-2        5N6d-1        5N6d0         5N6d+1        5N6d+2        5N1f-3        5N1f-2        5N1f-1    
   25    5N1f0         5N1f+1        5N1f+2        5N1f+3        5N2f-3        5N2f-2        5N2f-1        5N2f0         5N2f+1        5N2f+2    
   26    5N2f+3        5N3f-3        5N3f-2        5N3f-1        5N3f0         5N3f+1        5N3f+2        5N3f+3        6H1s          6H2s      
   27    6H3s          6H4s          6H5s          6H1pz         6H1py         6H1px         6H2pz         6H2py         6H2px         6H3pz     
   28    6H3py         6H3px         6H4pz         6H4py         6H4px         6H1d-2        6H1d-1        6H1d0         6H1d+1        6H1d+2    
   29    6H2d-2        6H2d-1        6H2d0         6H2d+1        6H2d+2        6H3d-2        6H3d-1        6H3d0         6H3d+1        6H3d+2    
   30    7H1s          7H2s          7H3s          7H4s          7H5s          7H1pz         7H1py         7H1px         7H2pz         7H2py     
   31    7H2px         7H3pz         7H3py         7H3px         7H4pz         7H4py         7H4px         7H1d-2        7H1d-1        7H1d0     
   32    7H1d+1        7H1d+2        7H2d-2        7H2d-1        7H2d0         7H2d+1        7H2d+2        7H3d-2        7H3d-1        7H3d0     
   33    7H3d+1        7H3d+2        8H1s          8H2s          8H3s          8H4s          8H5s          8H1pz         8H1py         8H1px     
   34    8H2pz         8H2py         8H2px         8H3pz         8H3py         8H3px         8H4pz         8H4py         8H4px         8H1d-2    
   35    8H1d-1        8H1d0         8H1d+1        8H1d+2        8H2d-2        8H2d-1        8H2d0         8H2d+1        8H2d+2        8H3d-2    
   36    8H3d-1        8H3d0         8H3d+1        8H3d+2        9N1s          9N2s          9N3s          9N4s          9N5s          9N6s      
   37    9N7s          9N8s          9N9s          9N10s         9N11s         9N1pz         9N1py         9N1px         9N2pz         9N2py     
   38    9N2px         9N3pz         9N3py         9N3px         9N4pz         9N4py         9N4px         9N5pz         9N5py         9N5px     
   39    9N6pz         9N6py         9N6px         9N7pz         9N7py         9N7px         9N8pz         9N8py         9N8px         9N1d-2    
   40    9N1d-1        9N1d0         9N1d+1        9N1d+2        9N2d-2        9N2d-1        9N2d0         9N2d+1        9N2d+2        9N3d-2    
   41    9N3d-1        9N3d0         9N3d+1        9N3d+2        9N4d-2        9N4d-1        9N4d0         9N4d+1        9N4d+2        9N5d-2    
   42    9N5d-1        9N5d0         9N5d+1        9N5d+2        9N6d-2        9N6d-1        9N6d0         9N6d+1        9N6d+2        9N1f-3    
   43    9N1f-2        9N1f-1        9N1f0         9N1f+1        9N1f+2        9N1f+3        9N2f-3        9N2f-2        9N2f-1        9N2f0     
   44    9N2f+1        9N2f+2        9N2f+3        9N3f-3        9N3f-2        9N3f-1        9N3f0         9N3f+1        9N3f+2        9N3f+3    
   45   10H1s         10H2s         10H3s         10H4s         10H5s         10H1pz        10H1py        10H1px        10H2pz        10H2py     
   46   10H2px        10H3pz        10H3py        10H3px        10H4pz        10H4py        10H4px        10H1d-2       10H1d-1       10H1d0     
   47   10H1d+1       10H1d+2       10H2d-2       10H2d-1       10H2d0        10H2d+1       10H2d+2       10H3d-2       10H3d-1       10H3d0     
   48   10H3d+1       10H3d+2       11H1s         11H2s         11H3s         11H4s         11H5s         11H1pz        11H1py        11H1px     
   49   11H2pz        11H2py        11H2px        11H3pz        11H3py        11H3px        11H4pz        11H4py        11H4px        11H1d-2    
   50   11H1d-1       11H1d0        11H1d+1       11H1d+2       11H2d-2       11H2d-1       11H2d0        11H2d+1       11H2d+2       11H3d-2    
   51   11H3d-1       11H3d0        11H3d+1       11H3d+2       12H1s         12H2s         12H3s         12H4s         12H5s         12H1pz     
   52   12H1py        12H1px        12H2pz        12H2py        12H2px        12H3pz        12H3py        12H3px        12H4pz        12H4py     
   53   12H4px        12H1d-2       12H1d-1       12H1d0        12H1d+1       12H1d+2       12H2d-2       12H2d-1       12H2d0        12H2d+1    
   54   12H2d+2       12H3d-2       12H3d-1       12H3d0        12H3d+1       12H3d+2    
 
 Maximum number of basis functions per shell:   30
 Total number of basis functions:    546
 
 
 Fitting basis set for the correlation calculation:
 
   1  N  aug-cc-pvdz-ri [ 8s 6p 5d 3f | 8s 6p 5d 3f ]
   2  H  aug-cc-pvdz-ri [ 4s 3p 2d | 4s 3p 2d ]
   3  H  aug-cc-pvdz-ri [ 4s 3p 2d | 4s 3p 2d ]
   4  H  aug-cc-pvdz-ri [ 4s 3p 2d | 4s 3p 2d ]
   5  N  aug-cc-pvdz-ri [ 8s 6p 5d 3f | 8s 6p 5d 3f ]
   6  H  aug-cc-pvdz-ri [ 4s 3p 2d | 4s 3p 2d ]
   7  H  aug-cc-pvdz-ri [ 4s 3p 2d | 4s 3p 2d ]
   8  H  aug-cc-pvdz-ri [ 4s 3p 2d | 4s 3p 2d ]
   9  N  aug-cc-pvdz-ri [ 8s 6p 5d 3f | 8s 6p 5d 3f ]
  10  H  aug-cc-pvdz-ri [ 4s 3p 2d | 4s 3p 2d ]
  11  H  aug-cc-pvdz-ri [ 4s 3p 2d | 4s 3p 2d ]
  12  H  aug-cc-pvdz-ri [ 4s 3p 2d | 4s 3p 2d ]
 
 Basis functions:
            1             2             3             4             5             6             7             8             9            10
    0    1N1s          1N2s          1N3s          1N4s          1N5s          1N6s          1N7s          1N8s          1N1pz         1N1py     
    1    1N1px         1N2pz         1N2py         1N2px         1N3pz         1N3py         1N3px         1N4pz         1N4py         1N4px     
    2    1N5pz         1N5py         1N5px         1N6pz         1N6py         1N6px         1N1d-2        1N1d-1        1N1d0         1N1d+1    
    3    1N1d+2        1N2d-2        1N2d-1        1N2d0         1N2d+1        1N2d+2        1N3d-2        1N3d-1        1N3d0         1N3d+1    
    4    1N3d+2        1N4d-2        1N4d-1        1N4d0         1N4d+1        1N4d+2        1N5d-2        1N5d-1        1N5d0         1N5d+1    
    5    1N5d+2        1N1f-3        1N1f-2        1N1f-1        1N1f0         1N1f+1        1N1f+2        1N1f+3        1N2f-3        1N2f-2    
    6    1N2f-1        1N2f0         1N2f+1        1N2f+2        1N2f+3        1N3f-3        1N3f-2        1N3f-1        1N3f0         1N3f+1    
    7    1N3f+2        1N3f+3        2H1s          2H2s          2H3s          2H4s          2H1pz         2H1py         2H1px         2H2pz     
    8    2H2py         2H2px         2H3pz         2H3py         2H3px         2H1d-2        2H1d-1        2H1d0         2H1d+1        2H1d+2    
    9    2H2d-2        2H2d-1        2H2d0         2H2d+1        2H2d+2        3H1s          3H2s          3H3s          3H4s          3H1pz     
   10    3H1py         3H1px         3H2pz         3H2py         3H2px         3H3pz         3H3py         3H3px         3H1d-2        3H1d-1    
   11    3H1d0         3H1d+1        3H1d+2        3H2d-2        3H2d-1        3H2d0         3H2d+1        3H2d+2        4H1s          4H2s      
   12    4H3s          4H4s          4H1pz         4H1py         4H1px         4H2pz         4H2py         4H2px         4H3pz         4H3py     
   13    4H3px         4H1d-2        4H1d-1        4H1d0         4H1d+1        4H1d+2        4H2d-2        4H2d-1        4H2d0         4H2d+1    
   14    4H2d+2        5N1s          5N2s          5N3s          5N4s          5N5s          5N6s          5N7s          5N8s          5N1pz     
   15    5N1py         5N1px         5N2pz         5N2py         5N2px         5N3pz         5N3py         5N3px         5N4pz         5N4py     
   16    5N4px         5N5pz         5N5py         5N5px         5N6pz         5N6py         5N6px         5N1d-2        5N1d-1        5N1d0     
   17    5N1d+1        5N1d+2        5N2d-2        5N2d-1        5N2d0         5N2d+1        5N2d+2        5N3d-2        5N3d-1        5N3d0     
   18    5N3d+1        5N3d+2        5N4d-2        5N4d-1        5N4d0         5N4d+1        5N4d+2        5N5d-2        5N5d-1        5N5d0     
   19    5N5d+1        5N5d+2        5N1f-3        5N1f-2        5N1f-1        5N1f0         5N1f+1        5N1f+2        5N1f+3        5N2f-3    
   20    5N2f-2        5N2f-1        5N2f0         5N2f+1        5N2f+2        5N2f+3        5N3f-3        5N3f-2        5N3f-1        5N3f0     
   21    5N3f+1        5N3f+2        5N3f+3        6H1s          6H2s          6H3s          6H4s          6H1pz         6H1py         6H1px     
   22    6H2pz         6H2py         6H2px         6H3pz         6H3py         6H3px         6H1d-2        6H1d-1        6H1d0         6H1d+1    
   23    6H1d+2        6H2d-2        6H2d-1        6H2d0         6H2d+1        6H2d+2        7H1s          7H2s          7H3s          7H4s      
   24    7H1pz         7H1py         7H1px         7H2pz         7H2py         7H2px         7H3pz         7H3py         7H3px         7H1d-2    
   25    7H1d-1        7H1d0         7H1d+1        7H1d+2        7H2d-2        7H2d-1        7H2d0         7H2d+1        7H2d+2        8H1s      
   26    8H2s          8H3s          8H4s          8H1pz         8H1py         8H1px         8H2pz         8H2py         8H2px         8H3pz     
   27    8H3py         8H3px         8H1d-2        8H1d-1        8H1d0         8H1d+1        8H1d+2        8H2d-2        8H2d-1        8H2d0     
   28    8H2d+1        8H2d+2        9N1s          9N2s          9N3s          9N4s          9N5s          9N6s          9N7s          9N8s      
   29    9N1pz         9N1py         9N1px         9N2pz         9N2py         9N2px         9N3pz         9N3py         9N3px         9N4pz     
   30    9N4py         9N4px         9N5pz         9N5py         9N5px         9N6pz         9N6py         9N6px         9N1d-2        9N1d-1    
   31    9N1d0         9N1d+1        9N1d+2        9N2d-2        9N2d-1        9N2d0         9N2d+1        9N2d+2        9N3d-2        9N3d-1    
   32    9N3d0         9N3d+1        9N3d+2        9N4d-2        9N4d-1        9N4d0         9N4d+1        9N4d+2        9N5d-2        9N5d-1    
   33    9N5d0         9N5d+1        9N5d+2        9N1f-3        9N1f-2        9N1f-1        9N1f0         9N1f+1        9N1f+2        9N1f+3    
   34    9N2f-3        9N2f-2        9N2f-1        9N2f0         9N2f+1        9N2f+2        9N2f+3        9N3f-3        9N3f-2        9N3f-1    
   35    9N3f0         9N3f+1        9N3f+2        9N3f+3       10H1s         10H2s         10H3s         10H4s         10H1pz        10H1py     
   36   10H1px        10H2pz        10H2py        10H2px        10H3pz        10H3py        10H3px        10H1d-2       10H1d-1       10H1d0     
   37   10H1d+1       10H1d+2       10H2d-2       10H2d-1       10H2d0        10H2d+1       10H2d+2       11H1s         11H2s         11H3s      
   38   11H4s         11H1pz        11H1py        11H1px        11H2pz        11H2py        11H2px        11H3pz        11H3py        11H3px     
   39   11H1d-2       11H1d-1       11H1d0        11H1d+1       11H1d+2       11H2d-2       11H2d-1       11H2d0        11H2d+1       11H2d+2    
   40   12H1s         12H2s         12H3s         12H4s         12H1pz        12H1py        12H1px        12H2pz        12H2py        12H2px     
   41   12H3pz        12H3py        12H3px        12H1d-2       12H1d-1       12H1d0        12H1d+1       12H1d+2       12H2d-2       12H2d-1    
   42   12H2d0        12H2d+1       12H2d+2    
 
 Maximum number of basis functions per shell:   30
 Total number of basis functions:    423
 
 
 Old basis set for SCF restart
 
   1  N  def2-svp [ 7s 4p 1d | 3s 2p 1d ]
   2  H  def2-svp [ 4s 1p | 2s 1p ]
   3  H  def2-svp [ 4s 1p | 2s 1p ]
   4  H  def2-svp [ 4s 1p | 2s 1p ]
   5  N  def2-svp [ 7s 4p 1d | 3s 2p 1d ]
   6  H  def2-svp [ 4s 1p | 2s 1p ]
   7  H  def2-svp [ 4s 1p | 2s 1p ]
   8  H  def2-svp [ 4s 1p | 2s 1p ]
   9  N  def2-svp [ 7s 4p 1d | 3s 2p 1d ]
  10  H  def2-svp [ 4s 1p | 2s 1p ]
  11  H  def2-svp [ 4s 1p | 2s 1p ]
  12  H  def2-svp [ 4s 1p | 2s 1p ]
 
 Basis functions:
            1             2             3             4             5             6             7             8             9            10
    0    1N1s          1N2s          1N3s          1N1pz         1N1py         1N1px         1N2pz         1N2py         1N2px         1N1d-2    
    1    1N1d-1        1N1d0         1N1d+1        1N1d+2        2H1s          2H2s          2H1pz         2H1py         2H1px         3H1s      
    2    3H2s          3H1pz         3H1py         3H1px         4H1s          4H2s          4H1pz         4H1py         4H1px         5N1s      
    3    5N2s          5N3s          5N1pz         5N1py         5N1px         5N2pz         5N2py         5N2px         5N1d-2        5N1d-1    
    4    5N1d0         5N1d+1        5N1d+2        6H1s          6H2s          6H1pz         6H1py         6H1px         7H1s          7H2s      
    5    7H1pz         7H1py         7H1px         8H1s          8H2s          8H1pz         8H1py         8H1px         9N1s          9N2s      
    6    9N3s          9N1pz         9N1py         9N1px         9N2pz         9N2py         9N2px         9N1d-2        9N1d-1        9N1d0     
    7    9N1d+1        9N1d+2       10H1s         10H2s         10H1pz        10H1py        10H1px        11H1s         11H2s         11H1pz     
    8   11H1py        11H1px        12H1s         12H2s         12H1pz        12H1py        12H1px     
 
 Maximum number of basis functions per shell:   30
 Total number of basis functions:     87
 
 
 Character table for point group C1:
 
          E  
    A     1
 
 Number of basis functions per irrep:
    A     150
 
 
 Calculation of overlap integrals...
 CPU time [min]:     0.182                   Wall time [min]:     0.005
 
 Calculation of the square root of the overlap matrix...
 Minimum eigenvalue of the overlap matrix: 0.126486E-02
 CPU time [min]:     0.206                   Wall time [min]:     0.006
 
 Calculation of kinetic energy integrals...
 CPU time [min]:     0.208                   Wall time [min]:     0.006
 Calculation of dipole moment integrals...
 CPU time [min]:     0.210                   Wall time [min]:     0.006
 Calculation of nuclear attraction integrals...
 CPU time [min]:     0.211                   Wall time [min]:     0.006
 Calculation of overlap integrals...
 CPU time [min]:     0.213                   Wall time [min]:     0.006
 
 Calculation of prescreening integrals...
 CPU time [min]:     0.280                   Wall time [min]:     0.007
 
 Calculation of two-center Coulomb integrals...
   1% done.
  13% done.
  24% done.
  37% done.
  53% done.
  68% done.
  80% done.
  95% done.
 100% done.
 CPU time [min]:     0.293                   Wall time [min]:     0.007
 
 Cholesky decomposition of the two-center matrix...
 Reciprocal of the condition number:  0.108469E-04
 CPU time [min]:     0.308                   Wall time [min]:     0.007
 

 ************************ 2026-02-26 23:06:45 *************************
 Executing scf...

 @scfsetup: integrals calculated directly
            mrcc/integ direct run
 @scfsetup: calculating on full matrices
            not using symmetry adapted basis
 @scfsetup: diis switched on
 @scfsetup: number of steps to extrapolate from  10
 @scfsetup: tolerance in energy deviation    0.100000E-07
            tolerance in density deviation    0.100000E-08
 @scfsetup: maximum number of iterations: 200
 @scfsetup: restricted closed shell hf calc
 @scfsetup: restarting scf from SCFDENSITIES file
 @scfsetup: occupation set:
            from initial orbitals
 @scfsetup: Parameter-set for SCF acceleration: normal
 @scfsetup: diis runs from iteration:   2
 @scfsetup: diis runs to iteration: 200
 @scfsetup: diis runs in every iteration
 @scfsetup: diiswatch is disabled                   
 @scfsetup: diis dtol criteria to switch on:      0.0000E+00
           (or the iteration number below is reached)
 @scfsetup: static damping scheme
            iteration step criteria to turn damping off: 3
 @scfsetup: dynamic level shifting
            tolarance in HOMO-LUMO gap:  0.200
            tolarance in density deviation:     0.0000E+00
            iteration step criteria to turn level shifting off: 8
 Allocation of 46.0 Gbytes of memory...
 ======================================================================
 ITERATION STEP   1
 CPU time [min]:     0.030                   Wall time [min]:     0.009
 

 SCF control                  : initial
 Damping factor/level shift   : 0.000/0.200
 DIIS [start/end/frequency]   :   2 /200 /  1

 Constructing Fock-matrix...
 Inverse square root: The matrix is not positive definite!
 
 Pipek-Mezey localization...
 Step  Convergence
   1   4.415864924356
   2   1.238985901393
   3   0.052808640585
   4   0.001916727014
   5   0.000162978940
   6   0.000019284318
   7   0.000002656952
   8   0.000000378563
   9   0.000000055010
  10   0.000000007998
 CPU time [min]:     0.060                   Wall time [min]:     0.009
 
 Constructing local fitting domains...
 Maximum number of atoms in fitting domains:   12
 Average number of atoms in fitting domains:    8.7
 
 First step of Coulomb + first step of exchange...
 Exchange contribution is evaluated for MOs 1 to 15.
   1% done.
  13% done.
  24% done.
  37% done.
  48% done.
  67% done.
  78% done.
  92% done.
 100% done.
 Fitting and assembly step of exchange...
 CPU time [min]:     0.252                   Wall time [min]:     0.012
 
 Second step of Coulomb...
   1% done.
  13% done.
  24% done.
  37% done.
  48% done.
  67% done.
  78% done.
  92% done.
 100% done.
 CPU time [min]:     0.282                   Wall time [min]:     0.013
 
 Gradient norm:      1.8964E-01
 RMS of [F,P]:                                         0.00322673771053
 RMS of difference density:                            0.00916184890000
 Gap [au]:  0.42948639
 ALPHA OCC:  15
 BETA  OCC:  15
 
 ***HARTREE-FOCK ENERGY IN STEP   1 IS       -168.5824010855307620 [AU]
 ======================================================================
 ITERATION STEP   2
 CPU time [min]:     0.303                   Wall time [min]:     0.013
 

 SCF control                  : diis
 Damping factor/level shift   : 0.000/0.000
 DIIS [start/end/frequency]   :   2 /200 /  1

 Constructing Fock-matrix...
 
 Pipek-Mezey localization...
 Step  Convergence
   1   0.122321827989
   2   0.120322158146
   3   0.001416642038
   4   0.000020842572
   5   0.000000909048
   6   0.000000104271
   7   0.000000013729
   8   0.000000001837
 CPU time [min]:     0.330                   Wall time [min]:     0.013
 
 Constructing local fitting domains...
 Maximum number of atoms in fitting domains:   12
 Average number of atoms in fitting domains:    8.8
 
 First step of Coulomb + first step of exchange...
 Exchange contribution is evaluated for MOs 1 to 15.
   1% done.
  13% done.
  24% done.
  37% done.
  48% done.
  67% done.
  78% done.
  92% done.
 100% done.
 Fitting and assembly step of exchange...
 CPU time [min]:     0.500                   Wall time [min]:     0.016
 
 Second step of Coulomb...
   1% done.
  13% done.
  24% done.
  37% done.
  48% done.
  67% done.
  78% done.
  92% done.
 100% done.
 CPU time [min]:     0.529                   Wall time [min]:     0.017
 
 Gradient norm:      3.1279E-02
 DIIS is running in this iteration step.
[...]
 

 Direct DF-CCSD(T) calculation
 
 Convergence criterion:  1.0E-05
 
 Number of occupied/virtual/auxiliary orbitals:     8    53   206
     24.84 MB is the minimal memory requirement for (T)
     14.50 MB is the minimal memory requirement for CCSD
 
 MP2 correlation energy [au]:       -0.310990814567
 
 LMP2 domain correlation energy contribution [au]:       -0.050137115875
 
 CPU time [min]:    10.993                   Wall time [min]:     0.192
 
 
 Starting CCSD iterations...
 
                     Residual norm       Correlation Energy
 Iteration  1        0.141175315410       -0.328207070668
 Iteration  2        0.040306368424       -0.336142431149
 Iteration  3        0.011229214708       -0.337421066676
 Iteration  4        0.003042895885       -0.337465854414
 Iteration  5        0.000845990664       -0.337479377655
 Iteration  6        0.000257766954       -0.337477863614
 Iteration  7        0.000090377747       -0.337476558154
 
 CCSD iteration has converged in  7 steps.
       45.44 MB memory was utilized by CCSD
 
 T1 diagnostic:      9.702E-03            D1 diagnostic:      2.586E-02
 
 T1 contribution [au]:                         0.000000000000
 CCSD correlation energy [au]:                -0.054095445064
 
 CPU time [min]:    11.262                   Wall time [min]:     0.196
 
 Calculation of (T) correction...
 
 Laplace threshold, nquadmin:  1.00E-03   4
 Number of quadrature points:    4
 
       28.27 MB memory is utilized for (T)

 0%       25%       50%       75%       100%
 |---------|---------|---------|---------| 
 
 (T) correction [au]:                   -0.001381863692
 CCSD(T) correlation energy [au]:       -0.055477308756
 
 CPU time [min]:    11.471                   Wall time [min]:     0.200
 
 MO:     8
 Number of atoms in domain:      12
    Number of atoms in PCD:      12
 Number of atomic orbitals:     150
 Number of atoms for local DF:   12
 Number of fitting functions:   423 (100.00%)
 Number of occupied orbitals:    12
 Number of virtual  orbitals:   135
 Number of Cholesky vectors:      8
 MP2 energy in ED [au]:          -0.050194315746
 Number of occupied LNOs:        11  (91.67%)
 Number of virtual  LNOs:        58  (42.96%)
 Number of Cholesky vectors:      8
 MP2 energy in LIS [au]:         -0.050188791780
 Correction for frozen LNO [au]: -0.000005523966     (0.011%)
 Number of NAFs:                241  (56.97%)
 CPU time [min]:    12.452                   Wall time [min]:     0.217
 

 Direct DF-CCSD(T) calculation
 
 Convergence criterion:  1.0E-05
 
 Number of occupied/virtual/auxiliary orbitals:    11    58   241
     35.50 MB is the minimal memory requirement for (T)
     21.82 MB is the minimal memory requirement for CCSD
 
 MP2 correlation energy [au]:       -0.343405911919
 
 LMP2 domain correlation energy contribution [au]:       -0.050188418253
 
 CPU time [min]:    12.517                   Wall time [min]:     0.218
 
 
 Starting CCSD iterations...
 
                     Residual norm       Correlation Energy
 Iteration  1        0.146804365841       -0.365348784222
 Iteration  2        0.041587307030       -0.374441122367
 Iteration  3        0.011171453831       -0.375720497881
 Iteration  4        0.003245099810       -0.375772381635
 Iteration  5        0.000866522809       -0.375791872689
 Iteration  6        0.000249747915       -0.375790661266
 Iteration  7        0.000078017678       -0.375788704315
 
 CCSD iteration has converged in  7 steps.
       65.48 MB memory was utilized by CCSD
 
 T1 diagnostic:      8.527E-03            D1 diagnostic:      2.546E-02
 
 T1 contribution [au]:                         0.000000000000
 CCSD correlation energy [au]:                -0.054145495539
 
 CPU time [min]:    12.969                   Wall time [min]:     0.225
 
 Calculation of (T) correction...
 
 Laplace threshold, nquadmin:  1.00E-03   4
 Number of quadrature points:    4
 
       45.26 MB memory is utilized for (T)

 0%       25%       50%       75%       100%
 |---------|---------|---------|---------| 
 
 (T) correction [au]:                   -0.001386327398
 CCSD(T) correlation energy [au]:       -0.055531822936
 
 CPU time [min]:    13.351                   Wall time [min]:     0.231
 
 MO:     9
 Number of atoms in domain:      12
    Number of atoms in PCD:      12
 Number of atomic orbitals:     150
 Number of atoms for local DF:   12
 Number of fitting functions:   423 (100.00%)
 Number of occupied orbitals:     8
 Number of virtual  orbitals:   135
 Number of Cholesky vectors:      8
 MP2 energy in ED [au]:          -0.049955068812
 Number of occupied LNOs:         6  (75.00%)
 Number of virtual  LNOs:        44  (32.59%)
 Number of Cholesky vectors:      8
 MP2 energy in LIS [au]:         -0.049950359048
 Correction for frozen LNO [au]: -0.000004709764     (0.009%)
 Number of NAFs:                151  (35.70%)
 CPU time [min]:    14.085                   Wall time [min]:     0.244
 

 Direct DF-CCSD(T) calculation
 
 Convergence criterion:  1.0E-05
 
 Number of occupied/virtual/auxiliary orbitals:     6    44   151
     13.87 MB is the minimal memory requirement for (T)
      8.24 MB is the minimal memory requirement for CCSD
 
 MP2 correlation energy [au]:       -0.211306955079
 
 LMP2 domain correlation energy contribution [au]:       -0.049950105250
 
 CPU time [min]:    14.136                   Wall time [min]:     0.244
 
 
 Starting CCSD iterations...
 
                     Residual norm       Correlation Energy
 Iteration  1        0.124329133168       -0.223321055088
 Iteration  2        0.034854729924       -0.229064801241
 Iteration  3        0.009632888777       -0.229983857108
 Iteration  4        0.002684223585       -0.229966836082
 Iteration  5        0.000731812598       -0.229986718411
 Iteration  6        0.000214838290       -0.229988405723
 Iteration  7        0.000062177086       -0.229986763523
 
 CCSD iteration has converged in  7 steps.
       23.29 MB memory was utilized by CCSD
 
 T1 diagnostic:      8.651E-03            D1 diagnostic:      2.349E-02
 
 T1 contribution [au]:                         0.000000000000
 CCSD correlation energy [au]:                -0.053947366734
 
 CPU time [min]:    14.301                   Wall time [min]:     0.247
 
 Calculation of (T) correction...
 
 Laplace threshold, nquadmin:  1.00E-03   4
 Number of quadrature points:    4
 
       14.60 MB memory is utilized for (T)

 0%       25%       50%       75%       100%
 |---------|---------|---------|---------| 
 
 (T) correction [au]:                   -0.001355912073
 CCSD(T) correlation energy [au]:       -0.055303278807
 
 CPU time [min]:    14.397                   Wall time [min]:     0.249
 
 MO:    10
 Number of atoms in domain:      12
    Number of atoms in PCD:      12
 Number of atomic orbitals:     150
 Number of atoms for local DF:   12
 Number of fitting functions:   423 (100.00%)
 Number of occupied orbitals:     8
 Number of virtual  orbitals:   135
 Number of Cholesky vectors:      8
 MP2 energy in ED [au]:          -0.049959012444
 Number of occupied LNOs:         7  (87.50%)
 Number of virtual  LNOs:        44  (32.59%)
 Number of Cholesky vectors:      8
 MP2 energy in LIS [au]:         -0.049954873179
 Correction for frozen LNO [au]: -0.000004139265     (0.008%)
 Number of NAFs:                157  (37.12%)
 CPU time [min]:    15.108                   Wall time [min]:     0.261
 

 Direct DF-CCSD(T) calculation
 
 Convergence criterion:  1.0E-05
 
 Number of occupied/virtual/auxiliary orbitals:     7    44   157
     14.59 MB is the minimal memory requirement for (T)
      8.95 MB is the minimal memory requirement for CCSD
 
 MP2 correlation energy [au]:       -0.211762497927
 
 LMP2 domain correlation energy contribution [au]:       -0.049954617019
 
 CPU time [min]:    15.160                   Wall time [min]:     0.262
 
 
 Starting CCSD iterations...
 
                     Residual norm       Correlation Energy
 Iteration  1        0.123080658419       -0.223524161092
 Iteration  2        0.034052557778       -0.228992497577
 Iteration  3        0.009669117689       -0.229908042460
 Iteration  4        0.002663270715       -0.229899491336
 Iteration  5        0.000720708444       -0.229918600781
 Iteration  6        0.000213311401       -0.229919569469
 Iteration  7        0.000061286774       -0.229917888131
 
 CCSD iteration has converged in  7 steps.
       23.85 MB memory was utilized by CCSD
 
 T1 diagnostic:      7.714E-03            D1 diagnostic:      2.335E-02
 
 T1 contribution [au]:                         0.000000000000
 CCSD correlation energy [au]:                -0.053951698453
 
 CPU time [min]:    15.347                   Wall time [min]:     0.265
 
 Calculation of (T) correction...
 
 Laplace threshold, nquadmin:  1.00E-03   4
 Number of quadrature points:    4
 
       16.04 MB memory is utilized for (T)

 0%       25%       50%       75%       100%
 |---------|---------|---------|---------| 
 
 (T) correction [au]:                   -0.001356099721
 CCSD(T) correlation energy [au]:       -0.055307798174
 
 CPU time [min]:    15.478                   Wall time [min]:     0.267
 
 MO:    11
 Number of atoms in domain:      12
    Number of atoms in PCD:      12
 Number of atomic orbitals:     150
 Number of atoms for local DF:   12
 Number of fitting functions:   423 (100.00%)
 Number of occupied orbitals:     8
 Number of virtual  orbitals:   135
 Number of Cholesky vectors:      8
 MP2 energy in ED [au]:          -0.050155922596
 Number of occupied LNOs:         7  (87.50%)
 Number of virtual  LNOs:        52  (38.52%)
 Number of Cholesky vectors:      8
 MP2 energy in LIS [au]:         -0.050150075545
 Correction for frozen LNO [au]: -0.000005847051     (0.012%)
 Number of NAFs:                202  (47.75%)
 CPU time [min]:    16.315                   Wall time [min]:     0.282
 

 Direct DF-CCSD(T) calculation
 
 Convergence criterion:  1.0E-05
 
 Number of occupied/virtual/auxiliary orbitals:     7    52   202
     22.96 MB is the minimal memory requirement for (T)
     13.12 MB is the minimal memory requirement for CCSD
 
 MP2 correlation energy [au]:       -0.270190002659
 
 LMP2 domain correlation energy contribution [au]:       -0.050149677533
 
 CPU time [min]:    16.371                   Wall time [min]:     0.282
 
 
 Starting CCSD iterations...
 
                     Residual norm       Correlation Energy
 Iteration  1        0.135313123646       -0.287633102573
 Iteration  2        0.037655959539       -0.294907209193
 Iteration  3        0.009977386748       -0.295892987804
 Iteration  4        0.002895122894       -0.295916798745
 Iteration  5        0.000770432581       -0.295934200300
 Iteration  6        0.000235359610       -0.295932524556
 Iteration  7        0.000072740422       -0.295931160611
 
 CCSD iteration has converged in  7 steps.
       41.99 MB memory was utilized by CCSD
 
 T1 diagnostic:      9.736E-03            D1 diagnostic:      2.398E-02
 
 T1 contribution [au]:                         0.000000000000
 CCSD correlation energy [au]:                -0.054119282119
 
 CPU time [min]:    16.604                   Wall time [min]:     0.286
 
 Calculation of (T) correction...
 
 Laplace threshold, nquadmin:  1.00E-03   4
 Number of quadrature points:    4
 
       24.88 MB memory is utilized for (T)

 0%       25%       50%       75%       100%
 |---------|---------|---------|---------| 
 
 (T) correction [au]:                   -0.001376948347
 CCSD(T) correlation energy [au]:       -0.055496230466
 
 CPU time [min]:    16.758                   Wall time [min]:     0.289
 
 MO:    12
 Number of atoms in domain:      12
    Number of atoms in PCD:      12
 Number of atomic orbitals:     150
 Number of atoms for local DF:   12
 Number of fitting functions:   423 (100.00%)
 Number of occupied orbitals:    12
 Number of virtual  orbitals:   135
 Number of Cholesky vectors:      8
 MP2 energy in ED [au]:          -0.050232059054
 Number of occupied LNOs:        10  (83.33%)
 Number of virtual  LNOs:        57  (42.22%)
 Number of Cholesky vectors:      8
 MP2 energy in LIS [au]:         -0.050223758445
 Correction for frozen LNO [au]: -0.000008300610     (0.017%)
 Number of NAFs:                235  (55.56%)
 CPU time [min]:    17.742                   Wall time [min]:     0.306
 

 Direct DF-CCSD(T) calculation
 
 Convergence criterion:  1.0E-05
 
 Number of occupied/virtual/auxiliary orbitals:    10    57   235
     32.80 MB is the minimal memory requirement for (T)
     19.76 MB is the minimal memory requirement for CCSD
 
 MP2 correlation energy [au]:       -0.309273363255
 
 LMP2 domain correlation energy contribution [au]:       -0.050223364952
 
 CPU time [min]:    17.804                   Wall time [min]:     0.307
 
 
 Starting CCSD iterations...
 
                     Residual norm       Correlation Energy
 Iteration  1        0.142715086920       -0.330981398858
 Iteration  2        0.039582089004       -0.339351687571
 Iteration  3        0.010124903810       -0.340336218057
 Iteration  4        0.003148450883       -0.340357218199
 Iteration  5        0.000842834203       -0.340379329299
 Iteration  6        0.000261851369       -0.340377656028
 Iteration  7        0.000081092539       -0.340375681623
 
 CCSD iteration has converged in  7 steps.
       60.66 MB memory was utilized by CCSD
 
 T1 diagnostic:      9.082E-03            D1 diagnostic:      2.557E-02
 
 T1 contribution [au]:                         0.000000000000
 CCSD correlation energy [au]:                -0.054183463373
 
 CPU time [min]:    18.196                   Wall time [min]:     0.313
 
 Calculation of (T) correction...
 
 Laplace threshold, nquadmin:  1.00E-03   4
 Number of quadrature points:    4
 
       40.27 MB memory is utilized for (T)

 0%       25%       50%       75%       100%
 |---------|---------|---------|---------| 
 
 (T) correction [au]:                   -0.001386120460
 CCSD(T) correlation energy [au]:       -0.055569583833
 
 CPU time [min]:    18.514                   Wall time [min]:     0.319
 
 **********************************************************************
 Dimensions of the extended domains:    Minimum / Average / Maximum
 
 Number of atoms in domain:                  12      12.0        12
 Number of atomic orbitals:                 150     150.0       150
 Number of fitting functions:               423     423.0       423
 Number of occupied localized MOs:            8       9.5        12
 Number of PAOs:                            135     135.0       135
 Number of occupied LNOs:                     6       8.3        11
 Number of virtual  LNOs:                    44      54.1        65
 Number of NAFs:                            151     209.8       262
 
 **********************************************************************
 Distant (and weak) pair contributions, corrections
 
 Sum of pair energies [au]:                    -0.000006954995    (0.001%)
 Sum of energy corrections [au]:               -0.000067854712    (0.011%)
 Pair energies + LNO corrections [au]:         -0.000074809706
 Sum of LMP2 contributions [au]:               -0.603806377352
 
 **********************************************************************
  Time of manipulations in the EDs:      max CPU/Wall [s]  all CPU/Wall [min]
 
 PD construction & multipole pair E       5.88     0.13     0.10     0.00
 Construct MO basis of the ED             1.30     0.02     0.20     0.00
 (mu,nu|P) evaluation & trf 2 (ai|P)      7.26     0.12     1.29     0.02
 Evaluate MP2 energy of the ED            0.49     0.01     0.08     0.00
 Transformations to the LNO basis         1.01     0.02     0.18     0.00
 Build W_PQ (Jai or Jpi part)             1.31     0.04     0.05     0.00
 Evaluate MP2 energy of the LIS           0.16     0.00     0.02     0.00
 (mu,nu|P) evaluation & trf 2 J(abQ)     39.42     0.69     6.65     0.11
 Total of the above for all EDs          50.95     0.89     8.46     0.14
 
 **********************************************************************
 Maximum memory requirement [MB]:       
 
 PD construction & multipole pair E          2.7
 AO integral evaluation in the EDs         315.2
 (mu,nu|P) evaluation & trf 2 (aI|P)       362.2
 Evaluate MP2 energy in the EDs             20.8
 Transformation to the LNO basis            12.9
 (mu,nu|P) to Jab transformation           324.5
 Evaluate MP2 energy in the LIS             15.5
 Minimum requirement for LIS CCSD           26.2
 Actually allocated  for LIS CCSD           95.4
 Minimum requirement for LIS (T)            45.6
 Actually allocated  for LIS (T)            56.5
 
 ======================================================================
 ======================================================================
 
 
 
 ======================================================================
 ======================================================================
 
 Final local CC results:
 
 Minimum number of correlated electrons:        12       ( 50.0%)
 Maximum number of correlated electrons:        22       ( 91.7%)
 Average number of correlated electrons:        16.7     ( 69.4%)
 Minimum number of correlated orbitals:         50       ( 34.0%)
 Maximum number of correlated orbitals:         75       ( 51.0%)
 Average number of correlated orbitals:         62.4     ( 42.5%)
 
 CPU time for integral calculations [min]:                  0.316
 Wall time for integral calculations [min]:                 0.007
 
 CPU time for SCF calculation [min]:                        3.647
 Wall time for SCF calculation [min]:                       0.079
 
 CPU time for orbital localization [min]:                   0.219
 Wall time for orbital localization [min]:                  0.017
 
 CPU time for integral transformations [min]:              11.110
 Wall time for integral transformations [min]:              0.195
 
 Reference energy [au]:                                  -168.615593842271
 
 LMP2 correlation energy [au]:                             -0.603806377352
 Total LMP2 energy [au]:                                 -169.219400219623
 
 Total MP2 correction for dropped NAFs [au]:               -0.000003300047
 Total MP2 correction [au]:                                -0.000078109754
 
 CPU time for CCSD calculations [min]:                      4.530
 Total CPU time for CCSD [min]:                            19.822
 Wall time for CCSD calculations [min]:                     0.074
 Total wall time for CCSD [min]:                            0.373
 
 CCSD correlation energy [au]:                             -0.649012355809
 Total CCSD energy [au]:                                 -169.264606198080
 CCSD correlation energy + 0.5 MP2 corrections [au]:       -0.649051410686
 Total LNO-CCSD energy with MP2 corrections [au]:        -169.264645252957
 
 CPU time for (T) corrections [min]:                        2.917
 Total CPU time for CCSD(T) [min]:                         22.739
 Wall time for (T) corrections [min]:                       0.050
 Total wall time for CCSD(T) [min]:                         0.423
 
 Total (T) correlation energy contribution [au]:           -0.017100130244
 Total (T) correlation energy+0.5 MP2 correction [au]:     -0.017139185121
 CCSD(T) correlation energy [au]:                          -0.666112486053
 Total CCSD(T) energy [au]:                              -169.281706328324
 CCSD(T) correlation energy + MP2 corrections [au]:        -0.666190595807
 Total LNO-CCSD(T) energy with MP2 corrections [au]:     -169.281784438078
 
 ======================================================================
 ======================================================================
 
 ************************ 2026-02-26 23:07:11 *************************
                      Normal termination of mrcc.
 **********************************************************************
