 **********************************************************************
                          MRCC program system
 **********************************************************************
 
                              Written by
     Mihaly Kallay, Peter R. Nagy, David Mester, Laszlo Gyevi-Nagy,
        Jozsef Csoka, P. Bernat Szabo, Zoltan Rolik, Gyula Samu,
     Jozsef Csontos, Bence Hegely, Adam Ganyecz, Istvan Ladjanszki,
       Lorant Szegedy, Bence Ladoczki, Klara Petrov, Mate Farkas,
                    Pal D. Mezei, and Reka A. Horvath
 
        Department of Physical Chemistry and Materials Science
            Budapest University of Technology and Economics
                  Budapest P.O.Box 91, H-1521 Hungary
 
                              www.mrcc.hu
 
                     Release date: August 28, 2023

 ************************ 2026-02-26 21:33:06 *************************
 Executing minp...

 Reading input from MINP...
 
 Input file:
 
charge=0
mult=1
calc=LNO-CCSD(T)
basis=aug-cc-pVDZ
symm=off
verbosity=3
unit=angs
scfalg=locfit1
scfmaxit=200
scftol=8
basis_sm=def2-SVP
usedisk=0
aocd=extra
chtol=1d-6
iesttol=0.001
scfiguess=small
lcorthr=tight
mem=46GB
ghost=serialno
1-4

geom=xyz
12

N      3.60995473454    1.52057191074    4.08577558721
H      4.42722968319    1.16893531034    4.59786809656
H      3.96163147006    2.03264798552    3.26841604077
H      3.09781293566    0.70333789254    3.73416418411
N      6.65105517382    4.08582522547    3.60997942338
H      7.16318242072    3.26858901465    3.96157875919
H      5.83376531255    3.73418533747    3.09787832187
H      6.29937278831    4.59789384265    4.42732807018
N      8.74045473454    6.65107191074    4.08577558721
H      9.55772968319    6.29943531034    4.59786809656
H      9.09213147006    7.16314798552    3.26841604077
H      8.22831293566    5.83383789254    3.73416418411
 
 
 Checking keyword combinations...
 
 Keywords:
 
 active=none
 agrid=ld0006-ld0590
 agrid_pssp=ld0006-ld0194
 agrid_pssp_sm=ld0006-ld0074
 basis=aug-cc-pvdz
 basis_sm=def2-svp
 basopt=off
 bfbasis=none
 bfgsmem=10
 bfgstol=1.0d-3
 boysalg=jacobi
 bpcompo=0.985
 bpcompv=0.98
 bpdfo=0.985
 bpocc=0.99995d0
 bppdo=0.999d0
 bppdv=0.98
 bpedo=0.99995d0
 bpedv=0.995d0
 calc=ccsd(t)
 ccmaxit=50
 ccprog=ccsd
 ccsdalg=dfdirect
 ccsdmkl=seq
 ccsdrest=off
 ccsdthreads=2
 cctol=5
 charge=0
 cialg=direct
 ciguess=off
 cmpgrp=auto
 comprest=off
 coord_sys=ric
 core=frozen
 corembed=off
 csapprox=off
 cvs=off
 dboc=off
 delocsomofact=
 dendec=cholesky
 dens=0
 denscorr=0
 dfalg=lineq
 dfbasis_cab=none
 dfbasis_cor=auto
 dfbasis_scf=auto
 dfbasis_scf_sm=auto
 dfintran=drpa
 dft=off
 dhexc=adc(2)
 diag=david
 docc=
 domrad=10.d0
 drpaalg=auto
 dual=off
 dual_df=off
 ecp=auto
 edisp=off
 edisp_embed=off
 embed=off
 epairestfact=off
 epairscale=1.d0
 etemp=300
 epert=none
 eps=
 espcharge=off
 excrad=1.0
 excrad_fin=0.100000000D-02
 fitting=coulomb
 fmm=off
 fmmord=8
 fnonorb=
 freq=off
 gamma=1.d0
 gauss=spher
 geom=xyz
 gopt=off
 ghost=serialno
 gtol=7
 grdens=off
 grid=auto
 grid_sm=auto
 gridbatch_cos=2000
 grtol=10
 guido_ct=off
 hamilton=dc
 iface=none
 intalg=auto
 ip_ea=off
 itol=12
 laptol=1.d-3
 lccoporder=lccfirst
 lcorthr=tight
 lccrest=off
 ldfgrad_tol=8
 lmp2dens=on
 lnoepso=3e-6
 lnoepsv=3e-7
 localcc=2021
 localcorrsymm=off
 locintrf=direct
 mact=
 maxact=off
 maxdim=200
 maxex=0
 maxmicroit=100
 mcscfiguess=hf
 mem=46gb
 mmprog=
 molden=on
 mpitasks=1
 mulmet=3
 mult=1
 nab=off
 nacto=0
 nactv=0
 naf_amp=3.16d-3
 naf_cor=1e-2
 naf_f12=off
 naf_scf=off
 nafalg=albe
 nafdens=off
 naftyp=jpq
 nchol=auto
 ndeps=1e-3
 nstate=1
 nsing=0
 nto=off
 ntrip=0
 num_grad=off
 occ=
 occri=off
 oniom=off
 oniom_eechg=off
 oniom_pcm=off
 oniom_qcorr=off
 optalg=
 optmaxit=50
 optetol=1e-6
 optex=0
 optgtol=1e-4
 optstol=1e-3
 orblocc=off
 orbloce=off
 orbloco=boys
 orblocv=pao
 orblocguess=cholesky
 osveps=-1.d0
 ovirt=off
 ovltol=1e-7
 ovosnorb=80.0
 pao_subsys_tol=1e-3
 pcm=off
 popul=off
 pressure=100000
 pssp=off
 ptfreq=0.0
 ptthreads=2
 qmreg=
 qmmm=off
 qro=off
 qscf=off
 redcost_exc=off
 redcost_tddft=0.985d0
 refdet=none
 rest=0
 rgrid=log3
 rism=off
 rohfcore=standard
 rohftype=semicanonical
 scfalg=locfit1
 scf_conv=auto
 scfdamp=0.0d0
 scfdamp_mode=off
 scfdamp_end=200
 scfdamp_dampstep=0.d0
 scfdamp_dtol=0.0d0
 scfdamp_maxfact=0.0d0
 scfdamp_minfact=0.0d0
 scfdiis=on
 scfdiis_dtol=0.0d0
 scfdiis_end=200
 scfdiis_start=2
 scfdiis_step=1
 scfdiis_watch=off
 scfdiis_wrange=10
 scfdiis_wlimit=5
 scfdiis_delmax=2
 scfdtol=9
 scfext=10
 scfguessdens=
 scfiguess=small
 scfloc=pm
 scflshift=0.20
 scflshift_end=8
 scflshift_dtol=0.0
 scflshift_gaptol=0.20
 scfmaxit=200
 scftype=
 scftol=8
 scspe=1.d0
 scsph=1.d0
 scsps=1.2d0
 scsps_t=1.2d0
 scspt=0.33333333333333
 scspt_t=0.33333333333333
 scspv=1.d0
 spairtol=-1.d0
 sqmprog=
 subminp=top
 symm=0
 talg=lapl
 temp=298.15
 test=off
 theodore=off
 tlmo=0.999
 tpao=0.94
 tprint=off
 uncontract=off
 unit=angs
 usedisk=0
 verbosity=3
 wpairtol=3.d-6
 
 Calculating integrals for small-basis SCF...

 ************************ 2026-02-26 21:33:07 *************************
 Executing integ...

 Allocation of 46.0 Gbytes of memory...
 
 
 Number of atoms:                 12
 Charge:                           0
 Number of electrons:             20
 Number of core electrons:         4
 Spin multiplicity:                1
 
                 Cartesian coordinates [bohr]      Atomic mass [AMU]  Z
   1  N     6.82182577    2.87346447    7.72099687     0.000000       0
   2  H     8.36625160    2.20896759    8.68871146     0.000000       0
   3  H     7.48639849    3.84114800    6.17641118     0.000000       0
   4  H     5.85401804    1.32911599    7.05654762     0.000000       0
   5  N    12.56867272    7.72109067    6.82187243    14.003074       7
   6  H    13.53645296    6.17673805    7.48629888     1.007825       1
   7  H    11.02421872    7.05658759    5.85414160     1.007825       1
   8  H    11.90408933    8.68876012    8.36643752     1.007825       1
   9  N    16.51706566   12.56870435    7.72099687    14.003074       7
  10  H    18.06149148   11.90420748    8.68871146     1.007825       1
  11  H    17.18163838   13.53638789    6.17641118     1.007825       1
  12  H    15.54925792   11.02435588    7.05654762     1.007825       1
 
 This molecule is an asymmetric top.
 
 Point group: C1  
 Computational point group: C1  
 
 Cartesian coordinates in standard orientation [bohr]
   1  N     9.96626792    1.13562878   -0.79976778
   2  H     9.35179989    2.03180695    0.80727064
   3  H     8.91237243   -0.48178857   -0.99232603
   4  H    11.80104739    0.58977848   -0.48546124
   5  N     2.59179156   -0.29302125    0.15428254
   6  H     3.03444484    0.36878255    1.92322570
   7  H     4.18620010   -1.13931260   -0.55639167
   8  H     2.21868885    1.25170755   -0.95852646
   9  N    -3.69774583    0.18144467   -0.18363967
  10  H    -4.31221386    1.07762284    1.42339875
  11  H    -4.75164132   -1.43597268   -0.37619792
  12  H    -1.86296636   -0.36440562    0.13066687
 
 Nuclear repulsion energy [au]:         39.169320732464
 
Warning: for H atoms in the case of dfbasis_scf=auto the AO basis is set as dfbasis_scf instead of def2-qzvp(pd)-ri-jk because the AO basis is larger. Set the dfbasis_scf=def2-qzvp(pd)-ri-jk in MINP if that is desired.
 
 
 Basis set information:
 
 Maximum angular momentum: g
 Maximum number of contracted Gaussians:   10
 Maximum number of primitive Gaussians:    14
 Spherical harmonic GTOs are used.
 
 
 Conventional basis set:
 
   1  N  def2-svp [ 7s 4p 1d | 3s 2p 1d ]
   2  H  def2-svp [ 4s 1p | 2s 1p ]
   3  H  def2-svp [ 4s 1p | 2s 1p ]
   4  H  def2-svp [ 4s 1p | 2s 1p ]
   5  N  def2-svp [ 7s 4p 1d | 3s 2p 1d ]
   6  H  def2-svp [ 4s 1p | 2s 1p ]
   7  H  def2-svp [ 4s 1p | 2s 1p ]
   8  H  def2-svp [ 4s 1p | 2s 1p ]
   9  N  def2-svp [ 7s 4p 1d | 3s 2p 1d ]
  10  H  def2-svp [ 4s 1p | 2s 1p ]
  11  H  def2-svp [ 4s 1p | 2s 1p ]
  12  H  def2-svp [ 4s 1p | 2s 1p ]
 
 Basis functions:
            1             2             3             4             5             6             7             8             9            10
    0    1N1s          1N2s          1N3s          1N1pz         1N1py         1N1px         1N2pz         1N2py         1N2px         1N1d-2    
    1    1N1d-1        1N1d0         1N1d+1        1N1d+2        2H1s          2H2s          2H1pz         2H1py         2H1px         3H1s      
    2    3H2s          3H1pz         3H1py         3H1px         4H1s          4H2s          4H1pz         4H1py         4H1px         5N1s      
    3    5N2s          5N3s          5N1pz         5N1py         5N1px         5N2pz         5N2py         5N2px         5N1d-2        5N1d-1    
    4    5N1d0         5N1d+1        5N1d+2        6H1s          6H2s          6H1pz         6H1py         6H1px         7H1s          7H2s      
    5    7H1pz         7H1py         7H1px         8H1s          8H2s          8H1pz         8H1py         8H1px         9N1s          9N2s      
    6    9N3s          9N1pz         9N1py         9N1px         9N2pz         9N2py         9N2px         9N1d-2        9N1d-1        9N1d0     
    7    9N1d+1        9N1d+2       10H1s         10H2s         10H1pz        10H1py        10H1px        11H1s         11H2s         11H1pz     
    8   11H1py        11H1px        12H1s         12H2s         12H1pz        12H1py        12H1px     
 
 Maximum number of basis functions per shell:    6
 Total number of basis functions:     87
 
 
 Fitting basis set for the SCF calculation:
 
   1  N  def2-qzvpp-ri-jk [ 14s 10p 6d 2f 1g | 10s 8p 4d 2f 1g ]
   2  H  def2-qzvpp [ 7s 3p 2d 1f | 4s 3p 2d 1f ]
   3  H  def2-qzvpp [ 7s 3p 2d 1f | 4s 3p 2d 1f ]
   4  H  def2-qzvpp [ 7s 3p 2d 1f | 4s 3p 2d 1f ]
   5  N  def2-qzvpp-ri-jk [ 14s 10p 6d 2f 1g | 10s 8p 4d 2f 1g ]
   6  H  def2-qzvpp [ 7s 3p 2d 1f | 4s 3p 2d 1f ]
   7  H  def2-qzvpp [ 7s 3p 2d 1f | 4s 3p 2d 1f ]
   8  H  def2-qzvpp [ 7s 3p 2d 1f | 4s 3p 2d 1f ]
   9  N  def2-qzvpp-ri-jk [ 14s 10p 6d 2f 1g | 10s 8p 4d 2f 1g ]
  10  H  def2-qzvpp [ 7s 3p 2d 1f | 4s 3p 2d 1f ]
  11  H  def2-qzvpp [ 7s 3p 2d 1f | 4s 3p 2d 1f ]
  12  H  def2-qzvpp [ 7s 3p 2d 1f | 4s 3p 2d 1f ]
 
 Basis functions:
            1             2             3             4             5             6             7             8             9            10
    0    1N1s          1N2s          1N3s          1N4s          1N5s          1N6s          1N7s          1N8s          1N9s          1N10s     
    1    1N1pz         1N1py         1N1px         1N2pz         1N2py         1N2px         1N3pz         1N3py         1N3px         1N4pz     
    2    1N4py         1N4px         1N5pz         1N5py         1N5px         1N6pz         1N6py         1N6px         1N7pz         1N7py     
    3    1N7px         1N8pz         1N8py         1N8px         1N1d-2        1N1d-1        1N1d0         1N1d+1        1N1d+2        1N2d-2    
    4    1N2d-1        1N2d0         1N2d+1        1N2d+2        1N3d-2        1N3d-1        1N3d0         1N3d+1        1N3d+2        1N4d-2    
    5    1N4d-1        1N4d0         1N4d+1        1N4d+2        1N1f-3        1N1f-2        1N1f-1        1N1f0         1N1f+1        1N1f+2    
    6    1N1f+3        1N2f-3        1N2f-2        1N2f-1        1N2f0         1N2f+1        1N2f+2        1N2f+3        1N1g-4        1N1g-3    
    7    1N1g-2        1N1g-1        1N1g0         1N1g+1        1N1g+2        1N1g+3        1N1g+4        2H1s          2H2s          2H3s      
    8    2H4s          2H1pz         2H1py         2H1px         2H2pz         2H2py         2H2px         2H3pz         2H3py         2H3px     
    9    2H1d-2        2H1d-1        2H1d0         2H1d+1        2H1d+2        2H2d-2        2H2d-1        2H2d0         2H2d+1        2H2d+2    
   10    2H1f-3        2H1f-2        2H1f-1        2H1f0         2H1f+1        2H1f+2        2H1f+3        3H1s          3H2s          3H3s      
   11    3H4s          3H1pz         3H1py         3H1px         3H2pz         3H2py         3H2px         3H3pz         3H3py         3H3px     
   12    3H1d-2        3H1d-1        3H1d0         3H1d+1        3H1d+2        3H2d-2        3H2d-1        3H2d0         3H2d+1        3H2d+2    
   13    3H1f-3        3H1f-2        3H1f-1        3H1f0         3H1f+1        3H1f+2        3H1f+3        4H1s          4H2s          4H3s      
   14    4H4s          4H1pz         4H1py         4H1px         4H2pz         4H2py         4H2px         4H3pz         4H3py         4H3px     
   15    4H1d-2        4H1d-1        4H1d0         4H1d+1        4H1d+2        4H2d-2        4H2d-1        4H2d0         4H2d+1        4H2d+2    
   16    4H1f-3        4H1f-2        4H1f-1        4H1f0         4H1f+1        4H1f+2        4H1f+3        5N1s          5N2s          5N3s      
   17    5N4s          5N5s          5N6s          5N7s          5N8s          5N9s          5N10s         5N1pz         5N1py         5N1px     
   18    5N2pz         5N2py         5N2px         5N3pz         5N3py         5N3px         5N4pz         5N4py         5N4px         5N5pz     
   19    5N5py         5N5px         5N6pz         5N6py         5N6px         5N7pz         5N7py         5N7px         5N8pz         5N8py     
   20    5N8px         5N1d-2        5N1d-1        5N1d0         5N1d+1        5N1d+2        5N2d-2        5N2d-1        5N2d0         5N2d+1    
   21    5N2d+2        5N3d-2        5N3d-1        5N3d0         5N3d+1        5N3d+2        5N4d-2        5N4d-1        5N4d0         5N4d+1    
   22    5N4d+2        5N1f-3        5N1f-2        5N1f-1        5N1f0         5N1f+1        5N1f+2        5N1f+3        5N2f-3        5N2f-2    
   23    5N2f-1        5N2f0         5N2f+1        5N2f+2        5N2f+3        5N1g-4        5N1g-3        5N1g-2        5N1g-1        5N1g0     
   24    5N1g+1        5N1g+2        5N1g+3        5N1g+4        6H1s          6H2s          6H3s          6H4s          6H1pz         6H1py     
   25    6H1px         6H2pz         6H2py         6H2px         6H3pz         6H3py         6H3px         6H1d-2        6H1d-1        6H1d0     
   26    6H1d+1        6H1d+2        6H2d-2        6H2d-1        6H2d0         6H2d+1        6H2d+2        6H1f-3        6H1f-2        6H1f-1    
   27    6H1f0         6H1f+1        6H1f+2        6H1f+3        7H1s          7H2s          7H3s          7H4s          7H1pz         7H1py     
   28    7H1px         7H2pz         7H2py         7H2px         7H3pz         7H3py         7H3px         7H1d-2        7H1d-1        7H1d0     
   29    7H1d+1        7H1d+2        7H2d-2        7H2d-1        7H2d0         7H2d+1        7H2d+2        7H1f-3        7H1f-2        7H1f-1    
   30    7H1f0         7H1f+1        7H1f+2        7H1f+3        8H1s          8H2s          8H3s          8H4s          8H1pz         8H1py     
   31    8H1px         8H2pz         8H2py         8H2px         8H3pz         8H3py         8H3px         8H1d-2        8H1d-1        8H1d0     
   32    8H1d+1        8H1d+2        8H2d-2        8H2d-1        8H2d0         8H2d+1        8H2d+2        8H1f-3        8H1f-2        8H1f-1    
   33    8H1f0         8H1f+1        8H1f+2        8H1f+3        9N1s          9N2s          9N3s          9N4s          9N5s          9N6s      
   34    9N7s          9N8s          9N9s          9N10s         9N1pz         9N1py         9N1px         9N2pz         9N2py         9N2px     
   35    9N3pz         9N3py         9N3px         9N4pz         9N4py         9N4px         9N5pz         9N5py         9N5px         9N6pz     
   36    9N6py         9N6px         9N7pz         9N7py         9N7px         9N8pz         9N8py         9N8px         9N1d-2        9N1d-1    
   37    9N1d0         9N1d+1        9N1d+2        9N2d-2        9N2d-1        9N2d0         9N2d+1        9N2d+2        9N3d-2        9N3d-1    
   38    9N3d0         9N3d+1        9N3d+2        9N4d-2        9N4d-1        9N4d0         9N4d+1        9N4d+2        9N1f-3        9N1f-2    
   39    9N1f-1        9N1f0         9N1f+1        9N1f+2        9N1f+3        9N2f-3        9N2f-2        9N2f-1        9N2f0         9N2f+1    
   40    9N2f+2        9N2f+3        9N1g-4        9N1g-3        9N1g-2        9N1g-1        9N1g0         9N1g+1        9N1g+2        9N1g+3    
   41    9N1g+4       10H1s         10H2s         10H3s         10H4s         10H1pz        10H1py        10H1px        10H2pz        10H2py     
   42   10H2px        10H3pz        10H3py        10H3px        10H1d-2       10H1d-1       10H1d0        10H1d+1       10H1d+2       10H2d-2    
   43   10H2d-1       10H2d0        10H2d+1       10H2d+2       10H1f-3       10H1f-2       10H1f-1       10H1f0        10H1f+1       10H1f+2    
   44   10H1f+3       11H1s         11H2s         11H3s         11H4s         11H1pz        11H1py        11H1px        11H2pz        11H2py     
   45   11H2px        11H3pz        11H3py        11H3px        11H1d-2       11H1d-1       11H1d0        11H1d+1       11H1d+2       11H2d-2    
   46   11H2d-1       11H2d0        11H2d+1       11H2d+2       11H1f-3       11H1f-2       11H1f-1       11H1f0        11H1f+1       11H1f+2    
   47   11H1f+3       12H1s         12H2s         12H3s         12H4s         12H1pz        12H1py        12H1px        12H2pz        12H2py     
   48   12H2px        12H3pz        12H3py        12H3px        12H1d-2       12H1d-1       12H1d0        12H1d+1       12H1d+2       12H2d-2    
   49   12H2d-1       12H2d0        12H2d+1       12H2d+2       12H1f-3       12H1f-2       12H1f-1       12H1f0        12H1f+1       12H1f+2    
   50   12H1f+3    
 
 Maximum number of basis functions per shell:   24
 Total number of basis functions:    501
 
 
 Initializing the SAD routines for the initial guess...
 Checking the files required for the initial guess...
 Atomic density files have been found for the atoms with the following serial numbers:
  
 Atomic density files have not been found for the atoms with the following serial numbers:
  5 6 7 8 9 10 11 12
 Generating SCFDENSITIES.N.def2-svp.0
 Generating SCFDENSITIES.H.def2-svp.0
 CPU time [min]:     0.214                   Wall time [min]:     0.132
 
 Character table for point group C1:
 
          E  
    A     1
 
 Number of basis functions per irrep:
    A      87
 
 
 Calculation of overlap integrals...
 CPU time [min]:     0.218                   Wall time [min]:     0.133
 
 Calculation of the square root of the overlap matrix...
 Minimum eigenvalue of the overlap matrix: 0.236292E-01
 CPU time [min]:     0.230                   Wall time [min]:     0.133
 
 Calculation of kinetic energy integrals...
 CPU time [min]:     0.231                   Wall time [min]:     0.133
 Calculation of dipole moment integrals...
 CPU time [min]:     0.232                   Wall time [min]:     0.133
 Calculation of nuclear attraction integrals...
 CPU time [min]:     0.233                   Wall time [min]:     0.133
 
 Calculation of prescreening integrals...
 CPU time [min]:     0.252                   Wall time [min]:     0.133
 
 Calculation of two-center Coulomb integrals...
   1% done.
  13% done.
  24% done.
  35% done.
  47% done.
  60% done.
  72% done.
  86% done.
  97% done.
 100% done.
 CPU time [min]:     0.264                   Wall time [min]:     0.133
 
 Cholesky decomposition of the two-center matrix...
 Reciprocal of the condition number:  0.929459E-05
 CPU time [min]:     0.291                   Wall time [min]:     0.134
 
 
 Running small-basis SCF...

 ************************ 2026-02-26 21:33:15 *************************
 Executing scf...

 @scfsetup: integrals calculated directly
            mrcc/integ direct run
 @scfsetup: calculating on full matrices
            not using symmetry adapted basis
 @scfsetup: diis switched on
 @scfsetup: number of steps to extrapolate from  10
 @scfsetup: tolerance in energy deviation    0.100000E-07
            tolerance in density deviation    0.100000E-08
 @scfsetup: maximum number of iterations: 200
 @scfsetup: restricted closed shell hf calc
 @scfsetup: starting scf from superposition of atomic densities
 @scfsetup: occupation set:
            from initial orbitals
 @scfsetup: Parameter-set for SCF acceleration: normal
 @scfsetup: diis runs from iteration:   2
 @scfsetup: diis runs to iteration: 200
 @scfsetup: diis runs in every iteration
 @scfsetup: diiswatch is disabled                   
 @scfsetup: diis dtol criteria to switch on:      0.0000E+00
           (or the iteration number below is reached)
 @scfsetup: static damping scheme
            iteration step criteria to turn damping off: 3
 @scfsetup: dynamic level shifting
            tolarance in HOMO-LUMO gap:  0.200
            tolarance in density deviation:     0.0000E+00
            iteration step criteria to turn level shifting off: 8
 Allocation of 46.0 Gbytes of memory...
 ======================================================================
 ITERATION STEP   1
 CPU time [min]:     0.040                   Wall time [min]:     0.010
 

 SCF control                  : initial
 Damping factor/level shift   : 0.000/0.200
 DIIS [start/end/frequency]   :   2 /200 /  1

 Constructing Fock-matrix...
 
 Pipek-Mezey localization...
 Step  Convergence
   1   4.449665872665
   2   0.630698874463
   3   0.016778039042
   4   0.000050520854
   5   0.000000454976
   6   0.000000005114
 CPU time [min]:     0.066                   Wall time [min]:     0.010
 
 Constructing local fitting domains...
 Maximum number of atoms in fitting domains:    7
 Average number of atoms in fitting domains:    4.9
 
 First step of Coulomb + first step of exchange...
 Exchange contribution is evaluated for MOs 1 to 10.
   1% done.
  14% done.
  25% done.
  37% done.
  49% done.
  60% done.
  72% done.
  83% done.
 100% done.
 Fitting and assembly step of exchange...
 CPU time [min]:     0.169                   Wall time [min]:     0.012
 
 Second step of Coulomb...
   1% done.
  14% done.
  25% done.
  37% done.
  49% done.
  60% done.
  72% done.
  83% done.
 100% done.
 CPU time [min]:     0.195                   Wall time [min]:     0.012
 
 Gradient norm:      2.4416E+00
 RMS of [F,P]:                                         0.03535673619298
 RMS of difference density:                            0.01295634612432
 Gap [au]:  0.61554495
 ALPHA OCC:  10
 BETA  OCC:  10
 
 ***HARTREE-FOCK ENERGY IN STEP   1 IS       -111.7253931031199272 [AU]
 ======================================================================
 ITERATION STEP   2
 CPU time [min]:     0.207                   Wall time [min]:     0.012
 

 SCF control                  : diis
 Damping factor/level shift   : 0.000/0.000
 DIIS [start/end/frequency]   :   2 /200 /  1

 Constructing Fock-matrix...
 
 Pipek-Mezey localization...
 Step  Convergence
   1   0.050880936251
   2   0.050405430677
   3   0.000074149901
   4   0.000000042716
   5   0.000000000176
 CPU time [min]:     0.230                   Wall time [min]:     0.013
 
 Constructing local fitting domains...
 Maximum number of atoms in fitting domains:    7
 Average number of atoms in fitting domains:    4.9
 
 First step of Coulomb + first step of exchange...
 Exchange contribution is evaluated for MOs 1 to 10.
   1% done.
  14% done.
  25% done.
  37% done.
  49% done.
  60% done.
  72% done.
  83% done.
 100% done.
 Fitting and assembly step of exchange...
 CPU time [min]:     0.323                   Wall time [min]:     0.014
 
 Second step of Coulomb...
   1% done.
  14% done.
  25% done.
  37% done.
  49% done.
  60% done.
  72% done.
  83% done.
 100% done.
 CPU time [min]:     0.348                   Wall time [min]:     0.015
 
 Gradient norm:      2.7271E-01
 DIIS is running in this iteration step.
 RMS of [F,P]:                                         0.00752151795969
 RMS of difference density:                            0.00604568977124
 Gap [au]:  0.45338606
 ALPHA OCC:  10
 BETA  OCC:  10
 
 ***HARTREE-FOCK ENERGY IN STEP   2 IS       -112.2515057841255839 [AU]
 
 Step comparison  Energy Drift [au]  DIIS error drift  Gradient drift
        1            5.2611E-01         2.7835E-02       2.1689E+00
        2            1.1225E+02         1.0000E-09       2.1689E+00
 ======================================================================
 ITERATION STEP   3
 CPU time [min]:     0.363                   Wall time [min]:     0.015
 

 SCF control                  : diis
 Damping factor/level shift   : 0.000/0.000
 DIIS [start/end/frequency]   :   2 /200 /  1

 Constructing Fock-matrix...
 
 Pipek-Mezey localization...
 Step  Convergence
   1   0.106447112754
   2   0.105149981794
   3   0.002202603628
   4   0.000000078525
   5   0.000000000021
 CPU time [min]:     0.386                   Wall time [min]:     0.015
 
 Constructing local fitting domains...
 Local fitting domains are unchanged.
 
 First step of Coulomb + first step of exchange...
 Exchange contribution is evaluated for MOs 1 to 10.
   1% done.
  14% done.
  25% done.
  37% done.
  49% done.
  60% done.
  72% done.
  83% done.
 100% done.
 Fitting and assembly step of exchange...
 CPU time [min]:     0.476                   Wall time [min]:     0.017
 
 Second step of Coulomb...
   1% done.
  14% done.
  25% done.
  37% done.
  49% done.
  60% done.
  72% done.
  83% done.
 100% done.
 CPU time [min]:     0.500                   Wall time [min]:     0.017
 
 Gradient norm:      1.1402E-01
 DIIS is running in this iteration step.
 RMS of [F,P]:                                         0.00357307582360
 RMS of difference density:                            0.00179933145718
 Gap [au]:  0.50982916
 ALPHA OCC:  10
 BETA  OCC:  10
 
 ***HARTREE-FOCK ENERGY IN STEP   3 IS       -112.2896897012445550 [AU]
 
 Step comparison  Energy Drift [au]  DIIS error drift  Gradient drift
        2            3.8184E-02         3.9484E-03       1.5869E-01
 ======================================================================
 ITERATION STEP   4
 CPU time [min]:     0.515                   Wall time [min]:     0.018
 

 SCF control                  : diis
 Damping factor/level shift   : 0.000/0.000
 DIIS [start/end/frequency]   :   2 /200 /  1

 Constructing Fock-matrix...
 
 Pipek-Mezey localization...
 Step  Convergence
   1   0.109320553060
   2   0.108725194291
   3   0.000364624714
   4   0.000000041480
   5   0.000000000049
 CPU time [min]:     0.538                   Wall time [min]:     0.018
 
 Constructing local fitting domains...
 Local fitting domains are unchanged.
 
 First step of Coulomb + first step of exchange...
 Exchange contribution is evaluated for MOs 1 to 10.
   1% done.
  14% done.
  25% done.
  37% done.
  49% done.
  60% done.
  72% done.
  83% done.
 100% done.
 Fitting and assembly step of exchange...
 CPU time [min]:     0.631                   Wall time [min]:     0.019
 
 Second step of Coulomb...
   1% done.
  14% done.
  25% done.
  37% done.
  49% done.
  60% done.
  72% done.
  83% done.
 100% done.
 CPU time [min]:     0.656                   Wall time [min]:     0.020
 
 Gradient norm:      2.2721E-02
 DIIS is running in this iteration step.
 RMS of [F,P]:                                         0.00045265482815
 RMS of difference density:                            0.00050316305556
 Gap [au]:  0.50124673
 ALPHA OCC:  10
 BETA  OCC:  10
 
 ***HARTREE-FOCK ENERGY IN STEP   4 IS       -112.2999835789088650 [AU]
 
 Step comparison  Energy Drift [au]  DIIS error drift  Gradient drift
        3            1.0294E-02         3.1204E-03       9.1295E-02
 ======================================================================
 ITERATION STEP   5
 CPU time [min]:     0.671                   Wall time [min]:     0.020
 

 SCF control                  : diis
 Damping factor/level shift   : 0.000/0.000
 DIIS [start/end/frequency]   :   2 /200 /  1

 Constructing Fock-matrix...
 
 Pipek-Mezey localization...
 Step  Convergence
   1   0.107219341228
   2   0.105081653286
   3   0.000299521913
   4   0.000000041741
   5   0.000000000025
 CPU time [min]:     0.694                   Wall time [min]:     0.021
 
 Constructing local fitting domains...
 Local fitting domains are unchanged.
 
 First step of Coulomb + first step of exchange...
 Exchange contribution is evaluated for MOs 1 to 10.
   1% done.
  14% done.
  25% done.
  37% done.
  49% done.
  60% done.
  72% done.
  83% done.
 100% done.
 Fitting and assembly step of exchange...
 CPU time [min]:     0.785                   Wall time [min]:     0.022
 
 Second step of Coulomb...
   1% done.
  14% done.
  25% done.
  37% done.
  49% done.
  60% done.
  72% done.
  83% done.
 100% done.
 CPU time [min]:     0.809                   Wall time [min]:     0.022
 
 Gradient norm:      2.5328E-03
 DIIS is running in this iteration step.
 RMS of [F,P]:                                         0.00008101236786
 RMS of difference density:                            0.00008128998004
 Gap [au]:  0.50093676
 ALPHA OCC:  10
 BETA  OCC:  10
 
 ***HARTREE-FOCK ENERGY IN STEP   5 IS       -112.3003190384698655 [AU]
 
 Step comparison  Energy Drift [au]  DIIS error drift  Gradient drift
        4            3.3546E-04         3.7164E-04       2.0188E-02
 ======================================================================
 ITERATION STEP   6
 CPU time [min]:     0.824                   Wall time [min]:     0.023
 

 SCF control                  : diis
 Damping factor/level shift   : 0.000/0.000
 DIIS [start/end/frequency]   :   2 /200 /  1

 Constructing Fock-matrix...
 
 Pipek-Mezey localization...
 Step  Convergence
   1   0.119132278743
   2   0.122552350537
   3   0.000243732190
   4   0.000000044126
   5   0.000000000035
 CPU time [min]:     0.848                   Wall time [min]:     0.023
 
 Constructing local fitting domains...
 Local fitting domains are unchanged.
 
 First step of Coulomb + first step of exchange...
 Exchange contribution is evaluated for MOs 1 to 10.
   1% done.
  14% done.
  25% done.
  37% done.
  49% done.
  60% done.
  72% done.
  83% done.
 100% done.
 Fitting and assembly step of exchange...
 CPU time [min]:     0.938                   Wall time [min]:     0.024
 
 Second step of Coulomb...
   1% done.
  14% done.
  25% done.
  37% done.
  49% done.
  60% done.
  72% done.
  83% done.
 100% done.
 CPU time [min]:     0.963                   Wall time [min]:     0.025
 
 Gradient norm:      5.9398E-04
 DIIS is running in this iteration step.
 RMS of [F,P]:                                         0.00001529920919
 RMS of difference density:                            0.00001721275479
 Gap [au]:  0.50116067
 ALPHA OCC:  10
 BETA  OCC:  10
 
 ***HARTREE-FOCK ENERGY IN STEP   6 IS       -112.3003259708528532 [AU]
 
 Step comparison  Energy Drift [au]  DIIS error drift  Gradient drift
        5            6.9324E-06         6.5713E-05       1.9389E-03
 ======================================================================
 ITERATION STEP   7
 CPU time [min]:     0.978                   Wall time [min]:     0.025
 

 SCF control                  : diis
 Damping factor/level shift   : 0.000/0.000
 DIIS [start/end/frequency]   :   2 /200 /  1

 Constructing Fock-matrix...
 
 Pipek-Mezey localization...
 Step  Convergence
   1   0.118320087096
   2   0.120495777186
   3   0.000260308045
   4   0.000000097098
   5   0.000000000170
   6   0.000000000001
 CPU time [min]:     1.002                   Wall time [min]:     0.026
 
 Constructing local fitting domains...
 Local fitting domains are unchanged.
 
 First step of Coulomb + first step of exchange...
 Exchange contribution is evaluated for MOs 1 to 10.
   1% done.
  14% done.
  25% done.
  37% done.
  49% done.
  60% done.
  72% done.
  83% done.
 100% done.
 Fitting and assembly step of exchange...
 CPU time [min]:     1.093                   Wall time [min]:     0.027
 
 Second step of Coulomb...
   1% done.
  14% done.
  25% done.
  37% done.
  49% done.
  60% done.
  72% done.
  83% done.
 100% done.
 CPU time [min]:     1.117                   Wall time [min]:     0.027
 
 Gradient norm:      2.9269E-04
 DIIS is running in this iteration step.
 RMS of [F,P]:                                         0.00000608340207
 RMS of difference density:                            0.00000594608849
 Gap [au]:  0.50104014
 ALPHA OCC:  10
 BETA  OCC:  10
 
 ***HARTREE-FOCK ENERGY IN STEP   7 IS       -112.3003256976473097 [AU]
 
 Step comparison  Energy Drift [au]  DIIS error drift  Gradient drift
        6           -2.7321E-07         9.2158E-06       3.0130E-04
 Warning! The energy goes uphill (with respect to previous step).
 ======================================================================
 ITERATION STEP   8
 CPU time [min]:     1.138                   Wall time [min]:     0.028
 

 SCF control                  : diis
 Damping factor/level shift   : 0.000/0.000
 DIIS [start/end/frequency]   :   2 /200 /  1

 Constructing Fock-matrix...
 
 Pipek-Mezey localization...
 Step  Convergence
   1   0.108550060493
   2   0.108045972516
   3   0.000054142943
   4   0.000000029071
   5   0.000000000071
   6   0.000000000000
 CPU time [min]:     1.161                   Wall time [min]:     0.028
 
 Constructing local fitting domains...
 Local fitting domains are unchanged.
 
 First step of Coulomb + first step of exchange...
 Exchange contribution is evaluated for MOs 1 to 10.
   1% done.
  14% done.
  25% done.
  37% done.
  49% done.
  60% done.
  72% done.
  83% done.
 100% done.
 Fitting and assembly step of exchange...
 CPU time [min]:     1.251                   Wall time [min]:     0.030
 
 Second step of Coulomb...
   1% done.
  14% done.
  25% done.
  37% done.
  49% done.
  60% done.
  72% done.
  83% done.
 100% done.
 CPU time [min]:     1.276                   Wall time [min]:     0.030
 
 Gradient norm:      8.7401E-05
 DIIS is running in this iteration step.
 RMS of [F,P]:                                         0.00000147474151
 RMS of difference density:                            0.00000305872290
 Gap [au]:  0.50102891
 ALPHA OCC:  10
 BETA  OCC:  10
 
 ***HARTREE-FOCK ENERGY IN STEP   8 IS       -112.3003255733794816 [AU]
 
 Step comparison  Energy Drift [au]  DIIS error drift  Gradient drift
        7           -1.2427E-07         4.6087E-06       2.0529E-04
 Warning! The energy goes uphill (with respect to previous step).
 ======================================================================
 ITERATION STEP   9
 CPU time [min]:     1.292                   Wall time [min]:     0.030
 

 SCF control                  : diis
 Damping factor/level shift   : 0.000/0.000
 DIIS [start/end/frequency]   :   2 /200 /  1

 Constructing Fock-matrix...
 
 Pipek-Mezey localization...
 Step  Convergence
   1   0.176674094098
   2   0.168466678959
   3   0.002361067120
   4   0.000000615892
   5   0.000000000396
   6   0.000000000000
 CPU time [min]:     1.316                   Wall time [min]:     0.031
 
 Constructing local fitting domains...
 Local fitting domains are unchanged.
 
 First step of Coulomb + first step of exchange...
 Exchange contribution is evaluated for MOs 1 to 10.
   1% done.
  14% done.
  25% done.
  37% done.
  49% done.
  60% done.
  72% done.
  83% done.
 100% done.
 Fitting and assembly step of exchange...
 CPU time [min]:     1.407                   Wall time [min]:     0.032
 
 Second step of Coulomb...
   1% done.
  14% done.
  25% done.
  37% done.
  49% done.
  60% done.
  72% done.
  83% done.
 100% done.
 CPU time [min]:     1.433                   Wall time [min]:     0.033
 
 Gradient norm:      7.5738E-06
 DIIS is running in this iteration step.
 RMS of [F,P]:                                         0.00000020515155
 RMS of difference density:                            0.00000039977386
 Gap [au]:  0.50102701
 ALPHA OCC:  10
 BETA  OCC:  10
 
 ***HARTREE-FOCK ENERGY IN STEP   9 IS       -112.3003255038876773 [AU]
 
 Step comparison  Energy Drift [au]  DIIS error drift  Gradient drift
        8           -6.9492E-08         1.2696E-06       7.9827E-05
 Warning! The energy goes uphill (with respect to previous step).
 ======================================================================
 ITERATION STEP  10
 CPU time [min]:     1.449                   Wall time [min]:     0.033
 

 SCF control                  : diis
 Damping factor/level shift   : 0.000/0.000
 DIIS [start/end/frequency]   :   2 /200 /  1

 Constructing Fock-matrix...
 
 Pipek-Mezey localization...
 Step  Convergence
   1   0.110938196798
   2   0.109591724090
   3   0.000036075717
   4   0.000000030350
   5   0.000000000073
   6   0.000000000000
 CPU time [min]:     1.472                   Wall time [min]:     0.033
 
 Constructing local fitting domains...
 Local fitting domains are unchanged.
 
 First step of Coulomb + first step of exchange...
 Exchange contribution is evaluated for MOs 1 to 10.
   1% done.
  14% done.
  25% done.
  37% done.
  49% done.
  60% done.
  72% done.
  83% done.
 100% done.
 Fitting and assembly step of exchange...
 CPU time [min]:     1.562                   Wall time [min]:     0.035
 
 Second step of Coulomb...
   1% done.
  14% done.
  25% done.
  37% done.
  49% done.
  60% done.
  72% done.
  83% done.
 100% done.
 CPU time [min]:     1.587                   Wall time [min]:     0.035
 
 Gradient norm:      2.1719E-06
 DIIS is running in this iteration step.
 RMS of [F,P]:                                         0.00000004478350
 RMS of difference density:                            0.00000009082026
 Gap [au]:  0.50102749
 ALPHA OCC:  10
 BETA  OCC:  10
 
 ***HARTREE-FOCK ENERGY IN STEP  10 IS       -112.3003255078424729 [AU]
 
 Step comparison  Energy Drift [au]  DIIS error drift  Gradient drift
        9            3.9548E-09         1.6037E-07       5.4019E-06
 ======================================================================
 ITERATION STEP  11
 CPU time [min]:     1.602                   Wall time [min]:     0.035
 

 SCF control                  : diis
 Damping factor/level shift   : 0.000/0.000
 DIIS [start/end/frequency]   :   2 /200 /  1

 Constructing Fock-matrix...
 
 Pipek-Mezey localization...
 Step  Convergence
   1   0.110548794646
   2   0.107666115570
   3   0.000062709982
   4   0.000000028767
   5   0.000000000069
   6   0.000000000000
 CPU time [min]:     1.625                   Wall time [min]:     0.036
 
 Constructing local fitting domains...
 Local fitting domains are unchanged.
 
 First step of Coulomb + first step of exchange...
 Exchange contribution is evaluated for MOs 1 to 10.
   1% done.
  14% done.
  25% done.
  37% done.
  49% done.
  60% done.
  72% done.
  83% done.
 100% done.
 Fitting and assembly step of exchange...
 CPU time [min]:     1.716                   Wall time [min]:     0.037
 
 Second step of Coulomb...
   1% done.
  14% done.
  25% done.
  37% done.
  49% done.
  60% done.
  72% done.
  83% done.
 100% done.
 CPU time [min]:     1.741                   Wall time [min]:     0.038
 
 Gradient norm:      6.4765E-07
 DIIS is running in this iteration step.
 RMS of [F,P]:                                         0.00000001258073
 RMS of difference density:                            0.00000003240953
 Gap [au]:  0.50102767
 ALPHA OCC:  10
 BETA  OCC:  10
 
 ***HARTREE-FOCK ENERGY IN STEP  11 IS       -112.3003255099151829 [AU]
 
 Step comparison  Energy Drift [au]  DIIS error drift  Gradient drift
       10            2.0727E-09         3.2203E-08       1.5243E-06
 ======================================================================
 ITERATION STEP  12
 CPU time [min]:     1.756                   Wall time [min]:     0.038
 

 SCF control                  : diis
 Damping factor/level shift   : 0.000/0.000
 DIIS [start/end/frequency]   :   2 /200 /  1

 Constructing Fock-matrix...
 
 Pipek-Mezey localization...
 Step  Convergence
   1   0.119294252913
   2   0.118036118375
   3   0.000199769221
   4   0.000000042450
   5   0.000000000068
   6   0.000000000000
 CPU time [min]:     1.780                   Wall time [min]:     0.038
 
 Constructing local fitting domains...
 Local fitting domains are unchanged.
 
 First step of Coulomb + first step of exchange...
 Exchange contribution is evaluated for MOs 1 to 10.
   1% done.
  14% done.
  25% done.
  37% done.
  49% done.
  60% done.
  72% done.
  83% done.
 100% done.
 Fitting and assembly step of exchange...
 CPU time [min]:     1.870                   Wall time [min]:     0.040
 
 Second step of Coulomb...
   1% done.
  14% done.
  25% done.
  37% done.
  49% done.
  60% done.
  72% done.
  83% done.
 100% done.
 CPU time [min]:     1.894                   Wall time [min]:     0.040
 
 Gradient norm:      9.1611E-08
 DIIS is running in this iteration step.
 RMS of [F,P]:                                         0.00000000221325
 RMS of difference density:                            0.00000000490596
 Gap [au]:  0.50102769
 ALPHA OCC:  10
 BETA  OCC:  10
 
 ***HARTREE-FOCK ENERGY IN STEP  12 IS       -112.3003255103589026 [AU]
 
 Step comparison  Energy Drift [au]  DIIS error drift  Gradient drift
       11            4.4372E-10         1.0367E-08       5.5604E-07
 ======================================================================
 ITERATION STEP  13
 CPU time [min]:     1.910                   Wall time [min]:     0.041
 

 SCF control                  : diis
 Damping factor/level shift   : 0.000/0.000
 DIIS [start/end/frequency]   :   2 /200 /  1

 Constructing Fock-matrix...
 
 Pipek-Mezey localization...
 Step  Convergence
   1   0.111487313358
   2   0.108020817367
   3   0.000063600079
   4   0.000000034135
   5   0.000000000093
   6   0.000000000000
 CPU time [min]:     1.933                   Wall time [min]:     0.041
 
 Constructing local fitting domains...
 Local fitting domains are unchanged.
 
 First step of Coulomb + first step of exchange...
 Exchange contribution is evaluated for MOs 1 to 10.
   1% done.
  14% done.
  25% done.
  37% done.
  49% done.
  60% done.
  72% done.
  83% done.
 100% done.
 Fitting and assembly step of exchange...
 CPU time [min]:     2.024                   Wall time [min]:     0.042
 
 Second step of Coulomb...
   1% done.
  14% done.
  25% done.
  37% done.
  49% done.
  60% done.
  72% done.
  83% done.
 100% done.
 CPU time [min]:     2.050                   Wall time [min]:     0.043
 
 Gradient norm:      1.5756E-08
 DIIS is running in this iteration step.
 RMS of [F,P]:                                         0.00000000041569
 RMS of difference density:                            0.00000000070752
 Gap [au]:  0.50102768
 ALPHA OCC:  10
 BETA  OCC:  10
 
 ***HARTREE-FOCK ENERGY IN STEP  13 IS       -112.3003255103117510 [AU]
 
 Step comparison  Energy Drift [au]  DIIS error drift  Gradient drift
       12           -4.7152E-11         1.7976E-09       7.5855E-08
 Warning! The energy goes uphill (with respect to previous step).
 
 The SCF iteration has converged.
 An extra iteration will be performed to calculate accurate SCF energy.
 
 ======================================================================
 ITERATION STEP  14
 CPU time [min]:     2.067                   Wall time [min]:     0.043
 

 SCF control                  : diis
 Damping factor/level shift   : 0.000/0.000
 DIIS [start/end/frequency]   :   2 /200 /  1

 Constructing Fock-matrix...
 
 Pipek-Mezey localization...
 Step  Convergence
   1   0.122863419505
   2   0.118585312922
   3   0.000401021589
   4   0.000000050311
   5   0.000000000043
   6   0.000000000000
 CPU time [min]:     2.090                   Wall time [min]:     0.044
 
 Constructing local fitting domains...
 Maximum number of atoms in fitting domains:   12
 Average number of atoms in fitting domains:   10.2
 
 First step of Coulomb + first step of exchange...
 Exchange contribution is evaluated for MOs 1 to 10.
   1% done.
  14% done.
  25% done.
  37% done.
  49% done.
  60% done.
  72% done.
  83% done.
 100% done.
 Fitting and assembly step of exchange...
 CPU time [min]:     2.205                   Wall time [min]:     0.045
 
 Second step of Coulomb...
   1% done.
  14% done.
  25% done.
  37% done.
  49% done.
  60% done.
  72% done.
  83% done.
 100% done.
 CPU time [min]:     2.230                   Wall time [min]:     0.046
 
 Gradient norm:      8.0050E-05
 RMS of [F,P]:                                         0.00000227867780
 RMS of difference density:                            0.00000210777274
 Gap [au]:  0.50104450
 ALPHA OCC:  10
 BETA  OCC:  10
 
 ***HARTREE-FOCK ENERGY IN STEP  14 IS       -112.3005823075938281 [AU]
 
 Step comparison  Energy Drift [au]  DIIS error drift  Gradient drift
       13            2.5680E-04        -2.2783E-06      -8.0034E-05
 Warning! The DIIS error goes uphill (with respect to previous step).
 Warning! The DIIS error goes uphill (with respect to step  13 ).
 Warning! The gradient goes uphill (with respect to previous step).
 Warning! The gradient goes uphill (with respect to step  13 ).
 ======================================================================
 
 SUCCESS...
 THE SCF ITERATION HAS CONVERGED!
 
                   A   
 FINAL ALPHA OCC:  10
 FINAL BETA  OCC:  10
 
 ***FINAL HARTREE-FOCK ENERGY:       -112.3005823075938281 [AU]
 
 Orbital energies [au]:
      Irrep         Alpha          Beta
    1   A        -15.553351     -15.553351
    2   A        -15.516871     -15.516871
    3   A         -1.124628      -1.124628
    4   A         -1.090328      -1.090328
    5   A         -0.630797      -0.630797
    6   A         -0.628002      -0.628002
    7   A         -0.595802      -0.595802
    8   A         -0.591991      -0.591991
    9   A         -0.431715      -0.431715
   10   A         -0.398540      -0.398540
 
   11   A          0.102505       0.102505
   12   A          0.170894       0.170894
   13   A          0.206291       0.206291
   14   A          0.218858       0.218858
   15   A          0.250644       0.250644
   16   A          0.268641       0.268641
   17   A          0.283186       0.283186
   18   A          0.335949       0.335949
   19   A          0.367426       0.367426
   20   A          0.443849       0.443849
   21   A          0.589901       0.589901
   22   A          0.699088       0.699088
   23   A          0.719975       0.719975
   24   A          0.724711       0.724711
   25   A          0.728090       0.728090
   26   A          0.758869       0.758869
   27   A          0.781377       0.781377
   28   A          0.890217       0.890217
   29   A          0.909963       0.909963
   30   A          1.009421       1.009421
   31   A          1.058085       1.058085
   32   A          1.082806       1.082806
   33   A          1.103949       1.103949
   34   A          1.120482       1.120482
   35   A          1.132465       1.132465
   36   A          1.153859       1.153859
   37   A          1.309820       1.309820
   38   A          1.446776       1.446776
   39   A          1.462428       1.462428
   40   A          1.481553       1.481553
   41   A          1.534597       1.534597
   42   A          1.565353       1.565353
   43   A          1.577972       1.577972
   44   A          1.623513       1.623513
   45   A          1.753041       1.753041
   46   A          1.856804       1.856804
   47   A          1.887806       1.887806
   48   A          1.951854       1.951854
   49   A          1.954776       1.954776
   50   A          1.962819       1.962819
   51   A          2.002694       2.002694
   52   A          2.052731       2.052731
   53   A          2.068545       2.068545
   54   A          2.099168       2.099168
   55   A          2.158263       2.158263
   56   A          2.266931       2.266931
   57   A          2.404228       2.404228
   58   A          2.411127       2.411127
   59   A          2.433276       2.433276
   60   A          2.438362       2.438362
   61   A          2.459034       2.459034
   62   A          2.462179       2.462179
   63   A          2.468207       2.468207
   64   A          2.481442       2.481442
   65   A          2.483810       2.483810
   66   A          2.747453       2.747453
   67   A          2.783885       2.783885
   68   A          3.029106       3.029106
   69   A          3.140995       3.140995
   70   A          3.147886       3.147886
   71   A          3.179214       3.179214
   72   A          3.184448       3.184448
   73   A          3.249825       3.249825
   74   A          3.293198       3.293198
   75   A          3.678567       3.678567
   76   A          3.693737       3.693737
   77   A          3.722307       3.722307
   78   A          3.758028       3.758028
   79   A          4.005052       4.005052
   80   A          4.025465       4.025465
   81   A          4.032308       4.032308
   82   A          4.145317       4.145317
   83   A          4.150965       4.150965
   84   A          4.881026       4.881026
   85   A          6.036999       6.036999
   86   A          6.038428       6.038428
   87   A         26.586475      26.586475
 
 RETURNING FROM SCF ALGORITHM
 ======================================================================

 ************************ 2026-02-26 21:33:18 *************************
 Executing integ...

 Allocation of 46.0 Gbytes of memory...
 
 
 Number of atoms:                 12
 Charge:                           0
 Number of electrons:             20
 Number of core electrons:         4
 Spin multiplicity:                1
 
                 Cartesian coordinates [bohr]      Atomic mass [AMU]  Z
   1  N     6.82182577    2.87346447    7.72099687     0.000000       0
   2  H     8.36625160    2.20896759    8.68871146     0.000000       0
   3  H     7.48639849    3.84114800    6.17641118     0.000000       0
   4  H     5.85401804    1.32911599    7.05654762     0.000000       0
   5  N    12.56867272    7.72109067    6.82187243    14.003074       7
   6  H    13.53645296    6.17673805    7.48629888     1.007825       1
   7  H    11.02421872    7.05658759    5.85414160     1.007825       1
   8  H    11.90408933    8.68876012    8.36643752     1.007825       1
   9  N    16.51706566   12.56870435    7.72099687    14.003074       7
  10  H    18.06149148   11.90420748    8.68871146     1.007825       1
  11  H    17.18163838   13.53638789    6.17641118     1.007825       1
  12  H    15.54925792   11.02435588    7.05654762     1.007825       1
 
 This molecule is an asymmetric top.
 
 Point group: C1  
 Computational point group: C1  
 
 Cartesian coordinates in standard orientation [bohr]
   1  N     9.96626792    1.13562878   -0.79976778
   2  H     9.35179989    2.03180695    0.80727064
   3  H     8.91237243   -0.48178857   -0.99232603
   4  H    11.80104739    0.58977848   -0.48546124
   5  N     2.59179156   -0.29302125    0.15428254
   6  H     3.03444484    0.36878255    1.92322570
   7  H     4.18620010   -1.13931260   -0.55639167
   8  H     2.21868885    1.25170755   -0.95852646
   9  N    -3.69774583    0.18144467   -0.18363967
  10  H    -4.31221386    1.07762284    1.42339875
  11  H    -4.75164132   -1.43597268   -0.37619792
  12  H    -1.86296636   -0.36440562    0.13066687
 
 Nuclear repulsion energy [au]:         39.169320732464
 
 
 Basis set information:
 
 Maximum angular momentum: g
 Maximum number of contracted Gaussians:   11
 Maximum number of primitive Gaussians:    14
 Spherical harmonic GTOs are used.
 
 
 Conventional basis set:
 
   1  N  aug-cc-pvdz [ 10s 5p 2d | 4s 3p 2d ]
   2  H  aug-cc-pvdz [ 5s 2p | 3s 2p ]
   3  H  aug-cc-pvdz [ 5s 2p | 3s 2p ]
   4  H  aug-cc-pvdz [ 5s 2p | 3s 2p ]
   5  N  aug-cc-pvdz [ 10s 5p 2d | 4s 3p 2d ]
   6  H  aug-cc-pvdz [ 5s 2p | 3s 2p ]
   7  H  aug-cc-pvdz [ 5s 2p | 3s 2p ]
   8  H  aug-cc-pvdz [ 5s 2p | 3s 2p ]
   9  N  aug-cc-pvdz [ 10s 5p 2d | 4s 3p 2d ]
  10  H  aug-cc-pvdz [ 5s 2p | 3s 2p ]
  11  H  aug-cc-pvdz [ 5s 2p | 3s 2p ]
  12  H  aug-cc-pvdz [ 5s 2p | 3s 2p ]
 
 Basis functions:
            1             2             3             4             5             6             7             8             9            10
    0    1N1s          1N2s          1N3s          1N4s          1N1pz         1N1py         1N1px         1N2pz         1N2py         1N2px     
    1    1N3pz         1N3py         1N3px         1N1d-2        1N1d-1        1N1d0         1N1d+1        1N1d+2        1N2d-2        1N2d-1    
    2    1N2d0         1N2d+1        1N2d+2        2H1s          2H2s          2H3s          2H1pz         2H1py         2H1px         2H2pz     
    3    2H2py         2H2px         3H1s          3H2s          3H3s          3H1pz         3H1py         3H1px         3H2pz         3H2py     
    4    3H2px         4H1s          4H2s          4H3s          4H1pz         4H1py         4H1px         4H2pz         4H2py         4H2px     
    5    5N1s          5N2s          5N3s          5N4s          5N1pz         5N1py         5N1px         5N2pz         5N2py         5N2px     
    6    5N3pz         5N3py         5N3px         5N1d-2        5N1d-1        5N1d0         5N1d+1        5N1d+2        5N2d-2        5N2d-1    
    7    5N2d0         5N2d+1        5N2d+2        6H1s          6H2s          6H3s          6H1pz         6H1py         6H1px         6H2pz     
    8    6H2py         6H2px         7H1s          7H2s          7H3s          7H1pz         7H1py         7H1px         7H2pz         7H2py     
    9    7H2px         8H1s          8H2s          8H3s          8H1pz         8H1py         8H1px         8H2pz         8H2py         8H2px     
   10    9N1s          9N2s          9N3s          9N4s          9N1pz         9N1py         9N1px         9N2pz         9N2py         9N2px     
   11    9N3pz         9N3py         9N3px         9N1d-2        9N1d-1        9N1d0         9N1d+1        9N1d+2        9N2d-2        9N2d-1    
   12    9N2d0         9N2d+1        9N2d+2       10H1s         10H2s         10H3s         10H1pz        10H1py        10H1px        10H2pz     
   13   10H2py        10H2px        11H1s         11H2s         11H3s         11H1pz        11H1py        11H1px        11H2pz        11H2py     
   14   11H2px        12H1s         12H2s         12H3s         12H1pz        12H1py        12H1px        12H2pz        12H2py        12H2px     
 
 Maximum number of basis functions per shell:   10
 Total number of basis functions:    150
 
 
 Fitting basis set for the SCF calculation:
 
   1  N  aug-cc-pvdz-ri-jk [ 11s 8p 6d 3f | 11s 8p 6d 3f ]
   2  H  aug-cc-pvdz-ri-jk [ 5s 4p 3d | 5s 4p 3d ]
   3  H  aug-cc-pvdz-ri-jk [ 5s 4p 3d | 5s 4p 3d ]
   4  H  aug-cc-pvdz-ri-jk [ 5s 4p 3d | 5s 4p 3d ]
   5  N  aug-cc-pvdz-ri-jk [ 11s 8p 6d 3f | 11s 8p 6d 3f ]
   6  H  aug-cc-pvdz-ri-jk [ 5s 4p 3d | 5s 4p 3d ]
   7  H  aug-cc-pvdz-ri-jk [ 5s 4p 3d | 5s 4p 3d ]
   8  H  aug-cc-pvdz-ri-jk [ 5s 4p 3d | 5s 4p 3d ]
   9  N  aug-cc-pvdz-ri-jk [ 11s 8p 6d 3f | 11s 8p 6d 3f ]
  10  H  aug-cc-pvdz-ri-jk [ 5s 4p 3d | 5s 4p 3d ]
  11  H  aug-cc-pvdz-ri-jk [ 5s 4p 3d | 5s 4p 3d ]
  12  H  aug-cc-pvdz-ri-jk [ 5s 4p 3d | 5s 4p 3d ]
 
 Basis functions:
            1             2             3             4             5             6             7             8             9            10
    0    1N1s          1N2s          1N3s          1N4s          1N5s          1N6s          1N7s          1N8s          1N9s          1N10s     
    1    1N11s         1N1pz         1N1py         1N1px         1N2pz         1N2py         1N2px         1N3pz         1N3py         1N3px     
    2    1N4pz         1N4py         1N4px         1N5pz         1N5py         1N5px         1N6pz         1N6py         1N6px         1N7pz     
    3    1N7py         1N7px         1N8pz         1N8py         1N8px         1N1d-2        1N1d-1        1N1d0         1N1d+1        1N1d+2    
    4    1N2d-2        1N2d-1        1N2d0         1N2d+1        1N2d+2        1N3d-2        1N3d-1        1N3d0         1N3d+1        1N3d+2    
    5    1N4d-2        1N4d-1        1N4d0         1N4d+1        1N4d+2        1N5d-2        1N5d-1        1N5d0         1N5d+1        1N5d+2    
    6    1N6d-2        1N6d-1        1N6d0         1N6d+1        1N6d+2        1N1f-3        1N1f-2        1N1f-1        1N1f0         1N1f+1    
    7    1N1f+2        1N1f+3        1N2f-3        1N2f-2        1N2f-1        1N2f0         1N2f+1        1N2f+2        1N2f+3        1N3f-3    
    8    1N3f-2        1N3f-1        1N3f0         1N3f+1        1N3f+2        1N3f+3        2H1s          2H2s          2H3s          2H4s      
    9    2H5s          2H1pz         2H1py         2H1px         2H2pz         2H2py         2H2px         2H3pz         2H3py         2H3px     
   10    2H4pz         2H4py         2H4px         2H1d-2        2H1d-1        2H1d0         2H1d+1        2H1d+2        2H2d-2        2H2d-1    
   11    2H2d0         2H2d+1        2H2d+2        2H3d-2        2H3d-1        2H3d0         2H3d+1        2H3d+2        3H1s          3H2s      
   12    3H3s          3H4s          3H5s          3H1pz         3H1py         3H1px         3H2pz         3H2py         3H2px         3H3pz     
   13    3H3py         3H3px         3H4pz         3H4py         3H4px         3H1d-2        3H1d-1        3H1d0         3H1d+1        3H1d+2    
   14    3H2d-2        3H2d-1        3H2d0         3H2d+1        3H2d+2        3H3d-2        3H3d-1        3H3d0         3H3d+1        3H3d+2    
   15    4H1s          4H2s          4H3s          4H4s          4H5s          4H1pz         4H1py         4H1px         4H2pz         4H2py     
   16    4H2px         4H3pz         4H3py         4H3px         4H4pz         4H4py         4H4px         4H1d-2        4H1d-1        4H1d0     
   17    4H1d+1        4H1d+2        4H2d-2        4H2d-1        4H2d0         4H2d+1        4H2d+2        4H3d-2        4H3d-1        4H3d0     
   18    4H3d+1        4H3d+2        5N1s          5N2s          5N3s          5N4s          5N5s          5N6s          5N7s          5N8s      
   19    5N9s          5N10s         5N11s         5N1pz         5N1py         5N1px         5N2pz         5N2py         5N2px         5N3pz     
   20    5N3py         5N3px         5N4pz         5N4py         5N4px         5N5pz         5N5py         5N5px         5N6pz         5N6py     
   21    5N6px         5N7pz         5N7py         5N7px         5N8pz         5N8py         5N8px         5N1d-2        5N1d-1        5N1d0     
   22    5N1d+1        5N1d+2        5N2d-2        5N2d-1        5N2d0         5N2d+1        5N2d+2        5N3d-2        5N3d-1        5N3d0     
   23    5N3d+1        5N3d+2        5N4d-2        5N4d-1        5N4d0         5N4d+1        5N4d+2        5N5d-2        5N5d-1        5N5d0     
   24    5N5d+1        5N5d+2        5N6d-2        5N6d-1        5N6d0         5N6d+1        5N6d+2        5N1f-3        5N1f-2        5N1f-1    
   25    5N1f0         5N1f+1        5N1f+2        5N1f+3        5N2f-3        5N2f-2        5N2f-1        5N2f0         5N2f+1        5N2f+2    
   26    5N2f+3        5N3f-3        5N3f-2        5N3f-1        5N3f0         5N3f+1        5N3f+2        5N3f+3        6H1s          6H2s      
   27    6H3s          6H4s          6H5s          6H1pz         6H1py         6H1px         6H2pz         6H2py         6H2px         6H3pz     
   28    6H3py         6H3px         6H4pz         6H4py         6H4px         6H1d-2        6H1d-1        6H1d0         6H1d+1        6H1d+2    
   29    6H2d-2        6H2d-1        6H2d0         6H2d+1        6H2d+2        6H3d-2        6H3d-1        6H3d0         6H3d+1        6H3d+2    
   30    7H1s          7H2s          7H3s          7H4s          7H5s          7H1pz         7H1py         7H1px         7H2pz         7H2py     
   31    7H2px         7H3pz         7H3py         7H3px         7H4pz         7H4py         7H4px         7H1d-2        7H1d-1        7H1d0     
   32    7H1d+1        7H1d+2        7H2d-2        7H2d-1        7H2d0         7H2d+1        7H2d+2        7H3d-2        7H3d-1        7H3d0     
   33    7H3d+1        7H3d+2        8H1s          8H2s          8H3s          8H4s          8H5s          8H1pz         8H1py         8H1px     
   34    8H2pz         8H2py         8H2px         8H3pz         8H3py         8H3px         8H4pz         8H4py         8H4px         8H1d-2    
   35    8H1d-1        8H1d0         8H1d+1        8H1d+2        8H2d-2        8H2d-1        8H2d0         8H2d+1        8H2d+2        8H3d-2    
   36    8H3d-1        8H3d0         8H3d+1        8H3d+2        9N1s          9N2s          9N3s          9N4s          9N5s          9N6s      
   37    9N7s          9N8s          9N9s          9N10s         9N11s         9N1pz         9N1py         9N1px         9N2pz         9N2py     
   38    9N2px         9N3pz         9N3py         9N3px         9N4pz         9N4py         9N4px         9N5pz         9N5py         9N5px     
   39    9N6pz         9N6py         9N6px         9N7pz         9N7py         9N7px         9N8pz         9N8py         9N8px         9N1d-2    
   40    9N1d-1        9N1d0         9N1d+1        9N1d+2        9N2d-2        9N2d-1        9N2d0         9N2d+1        9N2d+2        9N3d-2    
   41    9N3d-1        9N3d0         9N3d+1        9N3d+2        9N4d-2        9N4d-1        9N4d0         9N4d+1        9N4d+2        9N5d-2    
   42    9N5d-1        9N5d0         9N5d+1        9N5d+2        9N6d-2        9N6d-1        9N6d0         9N6d+1        9N6d+2        9N1f-3    
   43    9N1f-2        9N1f-1        9N1f0         9N1f+1        9N1f+2        9N1f+3        9N2f-3        9N2f-2        9N2f-1        9N2f0     
   44    9N2f+1        9N2f+2        9N2f+3        9N3f-3        9N3f-2        9N3f-1        9N3f0         9N3f+1        9N3f+2        9N3f+3    
   45   10H1s         10H2s         10H3s         10H4s         10H5s         10H1pz        10H1py        10H1px        10H2pz        10H2py     
   46   10H2px        10H3pz        10H3py        10H3px        10H4pz        10H4py        10H4px        10H1d-2       10H1d-1       10H1d0     
   47   10H1d+1       10H1d+2       10H2d-2       10H2d-1       10H2d0        10H2d+1       10H2d+2       10H3d-2       10H3d-1       10H3d0     
   48   10H3d+1       10H3d+2       11H1s         11H2s         11H3s         11H4s         11H5s         11H1pz        11H1py        11H1px     
   49   11H2pz        11H2py        11H2px        11H3pz        11H3py        11H3px        11H4pz        11H4py        11H4px        11H1d-2    
   50   11H1d-1       11H1d0        11H1d+1       11H1d+2       11H2d-2       11H2d-1       11H2d0        11H2d+1       11H2d+2       11H3d-2    
   51   11H3d-1       11H3d0        11H3d+1       11H3d+2       12H1s         12H2s         12H3s         12H4s         12H5s         12H1pz     
   52   12H1py        12H1px        12H2pz        12H2py        12H2px        12H3pz        12H3py        12H3px        12H4pz        12H4py     
   53   12H4px        12H1d-2       12H1d-1       12H1d0        12H1d+1       12H1d+2       12H2d-2       12H2d-1       12H2d0        12H2d+1    
   54   12H2d+2       12H3d-2       12H3d-1       12H3d0        12H3d+1       12H3d+2    
 
 Maximum number of basis functions per shell:   30
 Total number of basis functions:    546
 
 
 Fitting basis set for the correlation calculation:
 
   1  N  aug-cc-pvdz-ri [ 8s 6p 5d 3f | 8s 6p 5d 3f ]
   2  H  aug-cc-pvdz-ri [ 4s 3p 2d | 4s 3p 2d ]
   3  H  aug-cc-pvdz-ri [ 4s 3p 2d | 4s 3p 2d ]
   4  H  aug-cc-pvdz-ri [ 4s 3p 2d | 4s 3p 2d ]
   5  N  aug-cc-pvdz-ri [ 8s 6p 5d 3f | 8s 6p 5d 3f ]
   6  H  aug-cc-pvdz-ri [ 4s 3p 2d | 4s 3p 2d ]
   7  H  aug-cc-pvdz-ri [ 4s 3p 2d | 4s 3p 2d ]
   8  H  aug-cc-pvdz-ri [ 4s 3p 2d | 4s 3p 2d ]
   9  N  aug-cc-pvdz-ri [ 8s 6p 5d 3f | 8s 6p 5d 3f ]
  10  H  aug-cc-pvdz-ri [ 4s 3p 2d | 4s 3p 2d ]
  11  H  aug-cc-pvdz-ri [ 4s 3p 2d | 4s 3p 2d ]
  12  H  aug-cc-pvdz-ri [ 4s 3p 2d | 4s 3p 2d ]
 
 Basis functions:
            1             2             3             4             5             6             7             8             9            10
    0    1N1s          1N2s          1N3s          1N4s          1N5s          1N6s          1N7s          1N8s          1N1pz         1N1py     
    1    1N1px         1N2pz         1N2py         1N2px         1N3pz         1N3py         1N3px         1N4pz         1N4py         1N4px     
    2    1N5pz         1N5py         1N5px         1N6pz         1N6py         1N6px         1N1d-2        1N1d-1        1N1d0         1N1d+1    
    3    1N1d+2        1N2d-2        1N2d-1        1N2d0         1N2d+1        1N2d+2        1N3d-2        1N3d-1        1N3d0         1N3d+1    
    4    1N3d+2        1N4d-2        1N4d-1        1N4d0         1N4d+1        1N4d+2        1N5d-2        1N5d-1        1N5d0         1N5d+1    
    5    1N5d+2        1N1f-3        1N1f-2        1N1f-1        1N1f0         1N1f+1        1N1f+2        1N1f+3        1N2f-3        1N2f-2    
    6    1N2f-1        1N2f0         1N2f+1        1N2f+2        1N2f+3        1N3f-3        1N3f-2        1N3f-1        1N3f0         1N3f+1    
    7    1N3f+2        1N3f+3        2H1s          2H2s          2H3s          2H4s          2H1pz         2H1py         2H1px         2H2pz     
    8    2H2py         2H2px         2H3pz         2H3py         2H3px         2H1d-2        2H1d-1        2H1d0         2H1d+1        2H1d+2    
    9    2H2d-2        2H2d-1        2H2d0         2H2d+1        2H2d+2        3H1s          3H2s          3H3s          3H4s          3H1pz     
   10    3H1py         3H1px         3H2pz         3H2py         3H2px         3H3pz         3H3py         3H3px         3H1d-2        3H1d-1    
   11    3H1d0         3H1d+1        3H1d+2        3H2d-2        3H2d-1        3H2d0         3H2d+1        3H2d+2        4H1s          4H2s      
   12    4H3s          4H4s          4H1pz         4H1py         4H1px         4H2pz         4H2py         4H2px         4H3pz         4H3py     
   13    4H3px         4H1d-2        4H1d-1        4H1d0         4H1d+1        4H1d+2        4H2d-2        4H2d-1        4H2d0         4H2d+1    
   14    4H2d+2        5N1s          5N2s          5N3s          5N4s          5N5s          5N6s          5N7s          5N8s          5N1pz     
   15    5N1py         5N1px         5N2pz         5N2py         5N2px         5N3pz         5N3py         5N3px         5N4pz         5N4py     
   16    5N4px         5N5pz         5N5py         5N5px         5N6pz         5N6py         5N6px         5N1d-2        5N1d-1        5N1d0     
   17    5N1d+1        5N1d+2        5N2d-2        5N2d-1        5N2d0         5N2d+1        5N2d+2        5N3d-2        5N3d-1        5N3d0     
   18    5N3d+1        5N3d+2        5N4d-2        5N4d-1        5N4d0         5N4d+1        5N4d+2        5N5d-2        5N5d-1        5N5d0     
   19    5N5d+1        5N5d+2        5N1f-3        5N1f-2        5N1f-1        5N1f0         5N1f+1        5N1f+2        5N1f+3        5N2f-3    
   20    5N2f-2        5N2f-1        5N2f0         5N2f+1        5N2f+2        5N2f+3        5N3f-3        5N3f-2        5N3f-1        5N3f0     
   21    5N3f+1        5N3f+2        5N3f+3        6H1s          6H2s          6H3s          6H4s          6H1pz         6H1py         6H1px     
   22    6H2pz         6H2py         6H2px         6H3pz         6H3py         6H3px         6H1d-2        6H1d-1        6H1d0         6H1d+1    
   23    6H1d+2        6H2d-2        6H2d-1        6H2d0         6H2d+1        6H2d+2        7H1s          7H2s          7H3s          7H4s      
   24    7H1pz         7H1py         7H1px         7H2pz         7H2py         7H2px         7H3pz         7H3py         7H3px         7H1d-2    
   25    7H1d-1        7H1d0         7H1d+1        7H1d+2        7H2d-2        7H2d-1        7H2d0         7H2d+1        7H2d+2        8H1s      
   26    8H2s          8H3s          8H4s          8H1pz         8H1py         8H1px         8H2pz         8H2py         8H2px         8H3pz     
   27    8H3py         8H3px         8H1d-2        8H1d-1        8H1d0         8H1d+1        8H1d+2        8H2d-2        8H2d-1        8H2d0     
   28    8H2d+1        8H2d+2        9N1s          9N2s          9N3s          9N4s          9N5s          9N6s          9N7s          9N8s      
   29    9N1pz         9N1py         9N1px         9N2pz         9N2py         9N2px         9N3pz         9N3py         9N3px         9N4pz     
   30    9N4py         9N4px         9N5pz         9N5py         9N5px         9N6pz         9N6py         9N6px         9N1d-2        9N1d-1    
   31    9N1d0         9N1d+1        9N1d+2        9N2d-2        9N2d-1        9N2d0         9N2d+1        9N2d+2        9N3d-2        9N3d-1    
   32    9N3d0         9N3d+1        9N3d+2        9N4d-2        9N4d-1        9N4d0         9N4d+1        9N4d+2        9N5d-2        9N5d-1    
   33    9N5d0         9N5d+1        9N5d+2        9N1f-3        9N1f-2        9N1f-1        9N1f0         9N1f+1        9N1f+2        9N1f+3    
   34    9N2f-3        9N2f-2        9N2f-1        9N2f0         9N2f+1        9N2f+2        9N2f+3        9N3f-3        9N3f-2        9N3f-1    
   35    9N3f0         9N3f+1        9N3f+2        9N3f+3       10H1s         10H2s         10H3s         10H4s         10H1pz        10H1py     
   36   10H1px        10H2pz        10H2py        10H2px        10H3pz        10H3py        10H3px        10H1d-2       10H1d-1       10H1d0     
   37   10H1d+1       10H1d+2       10H2d-2       10H2d-1       10H2d0        10H2d+1       10H2d+2       11H1s         11H2s         11H3s      
   38   11H4s         11H1pz        11H1py        11H1px        11H2pz        11H2py        11H2px        11H3pz        11H3py        11H3px     
   39   11H1d-2       11H1d-1       11H1d0        11H1d+1       11H1d+2       11H2d-2       11H2d-1       11H2d0        11H2d+1       11H2d+2    
   40   12H1s         12H2s         12H3s         12H4s         12H1pz        12H1py        12H1px        12H2pz        12H2py        12H2px     
   41   12H3pz        12H3py        12H3px        12H1d-2       12H1d-1       12H1d0        12H1d+1       12H1d+2       12H2d-2       12H2d-1    
   42   12H2d0        12H2d+1       12H2d+2    
 
 Maximum number of basis functions per shell:   30
 Total number of basis functions:    423
 
 
 Old basis set for SCF restart
 
   1  N  def2-svp [ 7s 4p 1d | 3s 2p 1d ]
   2  H  def2-svp [ 4s 1p | 2s 1p ]
   3  H  def2-svp [ 4s 1p | 2s 1p ]
   4  H  def2-svp [ 4s 1p | 2s 1p ]
   5  N  def2-svp [ 7s 4p 1d | 3s 2p 1d ]
   6  H  def2-svp [ 4s 1p | 2s 1p ]
   7  H  def2-svp [ 4s 1p | 2s 1p ]
   8  H  def2-svp [ 4s 1p | 2s 1p ]
   9  N  def2-svp [ 7s 4p 1d | 3s 2p 1d ]
  10  H  def2-svp [ 4s 1p | 2s 1p ]
  11  H  def2-svp [ 4s 1p | 2s 1p ]
  12  H  def2-svp [ 4s 1p | 2s 1p ]
 
 Basis functions:
            1             2             3             4             5             6             7             8             9            10
    0    1N1s          1N2s          1N3s          1N1pz         1N1py         1N1px         1N2pz         1N2py         1N2px         1N1d-2    
    1    1N1d-1        1N1d0         1N1d+1        1N1d+2        2H1s          2H2s          2H1pz         2H1py         2H1px         3H1s      
    2    3H2s          3H1pz         3H1py         3H1px         4H1s          4H2s          4H1pz         4H1py         4H1px         5N1s      
    3    5N2s          5N3s          5N1pz         5N1py         5N1px         5N2pz         5N2py         5N2px         5N1d-2        5N1d-1    
    4    5N1d0         5N1d+1        5N1d+2        6H1s          6H2s          6H1pz         6H1py         6H1px         7H1s          7H2s      
    5    7H1pz         7H1py         7H1px         8H1s          8H2s          8H1pz         8H1py         8H1px         9N1s          9N2s      
    6    9N3s          9N1pz         9N1py         9N1px         9N2pz         9N2py         9N2px         9N1d-2        9N1d-1        9N1d0     
    7    9N1d+1        9N1d+2       10H1s         10H2s         10H1pz        10H1py        10H1px        11H1s         11H2s         11H1pz     
    8   11H1py        11H1px        12H1s         12H2s         12H1pz        12H1py        12H1px     
 
 Maximum number of basis functions per shell:   30
 Total number of basis functions:     87
 
 
 Character table for point group C1:
 
          E  
    A     1
 
 Number of basis functions per irrep:
    A     150
 
 
 Calculation of overlap integrals...
 CPU time [min]:     0.185                   Wall time [min]:     0.005
 
 Calculation of the square root of the overlap matrix...
 Minimum eigenvalue of the overlap matrix: 0.102763E-02
 CPU time [min]:     0.206                   Wall time [min]:     0.006
 
 Calculation of kinetic energy integrals...
 CPU time [min]:     0.208                   Wall time [min]:     0.006
 Calculation of dipole moment integrals...
 CPU time [min]:     0.209                   Wall time [min]:     0.006
 Calculation of nuclear attraction integrals...
 CPU time [min]:     0.210                   Wall time [min]:     0.006
 Calculation of overlap integrals...
 CPU time [min]:     0.212                   Wall time [min]:     0.006
 
 Calculation of prescreening integrals...
 CPU time [min]:     0.280                   Wall time [min]:     0.007
 
 Calculation of two-center Coulomb integrals...
   1% done.
  13% done.
  24% done.
  37% done.
  53% done.
  68% done.
  80% done.
  95% done.
 100% done.
 CPU time [min]:     0.292                   Wall time [min]:     0.007
 
 Cholesky decomposition of the two-center matrix...
 Reciprocal of the condition number:  0.189935E-04
 CPU time [min]:     0.308                   Wall time [min]:     0.007
 

 ************************ 2026-02-26 21:33:19 *************************
 Executing scf...

 @scfsetup: integrals calculated directly
            mrcc/integ direct run
 @scfsetup: calculating on full matrices
            not using symmetry adapted basis
 @scfsetup: diis switched on
 @scfsetup: number of steps to extrapolate from  10
 @scfsetup: tolerance in energy deviation    0.100000E-07
            tolerance in density deviation    0.100000E-08
 @scfsetup: maximum number of iterations: 200
 @scfsetup: restricted closed shell hf calc
 @scfsetup: restarting scf from SCFDENSITIES file
 @scfsetup: occupation set:
            from initial orbitals
 @scfsetup: Parameter-set for SCF acceleration: normal
 @scfsetup: diis runs from iteration:   2
 @scfsetup: diis runs to iteration: 200
 @scfsetup: diis runs in every iteration
 @scfsetup: diiswatch is disabled                   
 @scfsetup: diis dtol criteria to switch on:      0.0000E+00
           (or the iteration number below is reached)
 @scfsetup: static damping scheme
            iteration step criteria to turn damping off: 3
 @scfsetup: dynamic level shifting
            tolarance in HOMO-LUMO gap:  0.200
            tolarance in density deviation:     0.0000E+00
            iteration step criteria to turn level shifting off: 8
 Allocation of 46.0 Gbytes of memory...
 ======================================================================
 ITERATION STEP   1
 CPU time [min]:     0.033                   Wall time [min]:     0.009
 

 SCF control                  : initial
 Damping factor/level shift   : 0.000/0.200
 DIIS [start/end/frequency]   :   2 /200 /  1

 Constructing Fock-matrix...
 Inverse square root: The matrix is not positive definite!
 
 Pipek-Mezey localization...
 Step  Convergence
   1   4.736951069253
   2   1.333306232507
   3   0.153378809503
   4   0.001865233354
   5   0.000125710833
   6   0.000015867110
   7   0.000002218202
   8   0.000000314274
   9   0.000000044864
  10   0.000000006396
 CPU time [min]:     0.062                   Wall time [min]:     0.009
 
 Constructing local fitting domains...
 Maximum number of atoms in fitting domains:   12
 Average number of atoms in fitting domains:   10.0
 
 First step of Coulomb + first step of exchange...
 Exchange contribution is evaluated for MOs 1 to 10.
   1% done.
  13% done.
  24% done.
  37% done.
  48% done.
  67% done.
  78% done.
  92% done.
 100% done.
 Fitting and assembly step of exchange...
 CPU time [min]:     0.221                   Wall time [min]:     0.012
 
 Second step of Coulomb...
   1% done.
  13% done.
  24% done.
  37% done.
  48% done.
  67% done.
  78% done.
  92% done.
 100% done.
 CPU time [min]:     0.252                   Wall time [min]:     0.012
 
 Gradient norm:      1.2518E-01
 RMS of [F,P]:                                         0.00266435697304
 RMS of difference density:                            0.00813563226779
 Gap [au]:  0.42644585
 ALPHA OCC:  10
 BETA  OCC:  10
 
 ***HARTREE-FOCK ENERGY IN STEP   1 IS       -112.3901720839958358 [AU]
 ======================================================================
 ITERATION STEP   2
 CPU time [min]:     0.271                   Wall time [min]:     0.012
 

 SCF control                  : diis
 Damping factor/level shift   : 0.000/0.000
 DIIS [start/end/frequency]   :   2 /200 /  1

 Constructing Fock-matrix...
 
 Pipek-Mezey localization...
 Step  Convergence
   1   0.072124133490
   2   0.073109049690
   3   0.000696805072
   4   0.000011216585
   5   0.000000790227
   6   0.000000080604
   7   0.000000010338
   8   0.000000001420
 CPU time [min]:     0.297                   Wall time [min]:     0.013
 
 Constructing local fitting domains...
 Maximum number of atoms in fitting domains:   12
 Average number of atoms in fitting domains:   10.0
 
 First step of Coulomb + first step of exchange...
 Exchange contribution is evaluated for MOs 1 to 10.
   1% done.
  13% done.
  24% done.
  37% done.
  48% done.
  67% done.
  78% done.
  92% done.
 100% done.
 Fitting and assembly step of exchange...
 CPU time [min]:     0.438                   Wall time [min]:     0.015
 
 Second step of Coulomb...
   1% done.
  13% done.
  24% done.
  37% done.
  48% done.
  67% done.
  78% done.
  92% done.
 100% done.
 CPU time [min]:     0.468                   Wall time [min]:     0.016
 
 Gradient norm:      2.6701E-02
 DIIS is running in this iteration step.
 RMS of [F,P]:                                         0.00044815471659
 RMS of difference density:                            0.00117128416485
 Gap [au]:  0.43347679
 ALPHA OCC:  10
 BETA  OCC:  10
 
 ***HARTREE-FOCK ENERGY IN STEP   2 IS       -112.4096344787424755 [AU]
 
 Step comparison  Energy Drift [au]  DIIS error drift  Gradient drift
        1            1.9462E-02         2.2162E-03       9.8482E-02
        2            1.1241E+02         1.0000E-09       9.8482E-02
 ======================================================================
 ITERATION STEP   3
 CPU time [min]:     0.488                   Wall time [min]:     0.016
 

 SCF control                  : diis
 Damping factor/level shift   : 0.000/0.000
 DIIS [start/end/frequency]   :   2 /200 /  1

 Constructing Fock-matrix...
 
 Pipek-Mezey localization...
 Step  Convergence
   1   0.092151577878
   2   0.095871994440
   3   0.002454393600
   4   0.000003350986
   5   0.000000064380
   6   0.000000005032
 CPU time [min]:     0.514                   Wall time [min]:     0.016
 
 Constructing local fitting domains...
 Local fitting domains are unchanged.
 
 First step of Coulomb + first step of exchange...
 Exchange contribution is evaluated for MOs 1 to 10.
   1% done.
  13% done.
  24% done.
  37% done.
  48% done.
  67% done.
  78% done.
  92% done.
 100% done.
 Fitting and assembly step of exchange...
 CPU time [min]:     0.653                   Wall time [min]:     0.019
 
 Second step of Coulomb...
   1% done.
  13% done.
  24% done.
  37% done.
  48% done.
  67% done.
  78% done.
  92% done.
 100% done.
[...]
 

 Direct DF-CCSD(T) calculation
 
 Convergence criterion:  1.0E-05
 
 Number of occupied/virtual/auxiliary orbitals:     7    47   139
     15.62 MB is the minimal memory requirement for (T)
      9.17 MB is the minimal memory requirement for CCSD
 
 MP2 correlation energy [au]:       -0.258949341011
 
 LMP2 domain correlation energy contribution [au]:       -0.050201755518
 
 CPU time [min]:     3.881                   Wall time [min]:     0.069
 
 
 Starting CCSD iterations...
 
                     Residual norm       Correlation Energy
 Iteration  1        0.133635860706       -0.275656857581
 Iteration  2        0.037312173564       -0.282685209322
 Iteration  3        0.009724100478       -0.283590022651
 Iteration  4        0.002900678765       -0.283589433092
 Iteration  5        0.000751189872       -0.283610789714
 Iteration  6        0.000230844755       -0.283608695749
 Iteration  7        0.000063785960       -0.283607201215
 
 CCSD iteration has converged in  7 steps.
       28.61 MB memory was utilized by CCSD
 
 T1 diagnostic:      1.002E-02            D1 diagnostic:      2.384E-02
 
 T1 contribution [au]:                         0.000000000000
 CCSD correlation energy [au]:                -0.054175663177
 
 CPU time [min]:     4.080                   Wall time [min]:     0.072
 
 Calculation of (T) correction...
 
 Laplace threshold, nquadmin:  1.00E-03   4
 Number of quadrature points:    4
 
       17.84 MB memory is utilized for (T)

 0%       25%       50%       75%       100%
 |---------|---------|---------|---------| 
 
 (T) correction [au]:                   -0.001380090187
 CCSD(T) correlation energy [au]:       -0.055555753364
 
 CPU time [min]:     4.223                   Wall time [min]:     0.075
 
 MO:     4
 Number of atoms in domain:      12
    Number of atoms in PCD:      12
 Number of atomic orbitals:     150
 Number of atoms for local DF:   12
 Number of fitting functions:   423 (100.00%)
 Number of occupied orbitals:     8
 Number of virtual  orbitals:   140
 Number of Cholesky vectors:      9
 MP2 energy in ED [au]:          -0.050159034599
 Number of occupied LNOs:         7  (87.50%)
 Number of virtual  LNOs:        48  (34.29%)
 Number of Cholesky vectors:      7
 MP2 energy in LIS [au]:         -0.050134088034
 Correction for frozen LNO [au]: -0.000024946565     (0.050%)
 Number of NAFs:                144  (34.04%)
 CPU time [min]:     5.003                   Wall time [min]:     0.088
 

 Direct DF-CCSD(T) calculation
 
 Convergence criterion:  1.0E-05
 
 Number of occupied/virtual/auxiliary orbitals:     7    48   144
     16.54 MB is the minimal memory requirement for (T)
      9.62 MB is the minimal memory requirement for CCSD
 
 MP2 correlation energy [au]:       -0.272442785677
 
 LMP2 domain correlation energy contribution [au]:       -0.050126583632
 
 CPU time [min]:     5.057                   Wall time [min]:     0.089
 
 
 Starting CCSD iterations...
 
                     Residual norm       Correlation Energy
 Iteration  1        0.137102284163       -0.290458680693
 Iteration  2        0.038260750504       -0.297908176101
 Iteration  3        0.009505119571       -0.298823754257
 Iteration  4        0.002647931645       -0.298843592731
 Iteration  5        0.000668378801       -0.298863594288
 Iteration  6        0.000187469866       -0.298862277737
 Iteration  7        0.000053327084       -0.298861582018
 
 CCSD iteration has converged in  7 steps.
       30.73 MB memory was utilized by CCSD
 
 T1 diagnostic:      9.049E-03            D1 diagnostic:      2.275E-02
 
 T1 contribution [au]:                         0.000000000000
 CCSD correlation energy [au]:                -0.054095299247
 
 CPU time [min]:     5.260                   Wall time [min]:     0.092
 
 Calculation of (T) correction...
 
 Laplace threshold, nquadmin:  1.00E-03   4
 Number of quadrature points:    4
 
       18.85 MB memory is utilized for (T)

 0%       25%       50%       75%       100%
 |---------|---------|---------|---------| 
 
 (T) correction [au]:                   -0.001374722935
 CCSD(T) correlation energy [au]:       -0.055470022182
 
 CPU time [min]:     5.403                   Wall time [min]:     0.095
 
 MO:     5
 Number of atoms in domain:      12
    Number of atoms in PCD:      12
 Number of atomic orbitals:     150
 Number of atoms for local DF:   12
 Number of fitting functions:   423 (100.00%)
 Number of occupied orbitals:     8
 Number of virtual  orbitals:   140
 Number of Cholesky vectors:      9
 MP2 energy in ED [au]:          -0.050171334780
 Number of occupied LNOs:         7  (87.50%)
 Number of virtual  LNOs:        48  (34.29%)
 Number of Cholesky vectors:      7
 MP2 energy in LIS [au]:         -0.050153094771
 Correction for frozen LNO [au]: -0.000018240009     (0.036%)
 Number of NAFs:                143  (33.81%)
 CPU time [min]:     6.183                   Wall time [min]:     0.108
 

 Direct DF-CCSD(T) calculation
 
 Convergence criterion:  1.0E-05
 
 Number of occupied/virtual/auxiliary orbitals:     7    48   143
     16.49 MB is the minimal memory requirement for (T)
      9.58 MB is the minimal memory requirement for CCSD
 
 MP2 correlation energy [au]:       -0.258445586782
 
 LMP2 domain correlation energy contribution [au]:       -0.050144656966
 
 CPU time [min]:     6.236                   Wall time [min]:     0.109
 
 
 Starting CCSD iterations...
 
                     Residual norm       Correlation Energy
 Iteration  1        0.134633340302       -0.276010949994
 Iteration  2        0.037572454263       -0.283458366562
 Iteration  3        0.009316917167       -0.284298662848
 Iteration  4        0.002729095473       -0.284304076313
 Iteration  5        0.000662120393       -0.284322866608
 Iteration  6        0.000192381480       -0.284321451344
 Iteration  7        0.000054437128       -0.284320424032
 
 CCSD iteration has converged in  7 steps.
       30.70 MB memory was utilized by CCSD
 
 T1 diagnostic:      9.842E-03            D1 diagnostic:      2.467E-02
 
 T1 contribution [au]:                         0.000000000000
 CCSD correlation energy [au]:                -0.054110001259
 
 CPU time [min]:     6.438                   Wall time [min]:     0.112
 
 Calculation of (T) correction...
 
 Laplace threshold, nquadmin:  1.00E-03   4
 Number of quadrature points:    4
 
       18.82 MB memory is utilized for (T)

 0%       25%       50%       75%       100%
 |---------|---------|---------|---------| 
 
 (T) correction [au]:                   -0.001376837739
 CCSD(T) correlation energy [au]:       -0.055486838998
 
 CPU time [min]:     6.579                   Wall time [min]:     0.115
 
 MO:     6
 Number of atoms in domain:      12
    Number of atoms in PCD:      12
 Number of atomic orbitals:     150
 Number of atoms for local DF:   12
 Number of fitting functions:   423 (100.00%)
 Number of occupied orbitals:     8
 Number of virtual  orbitals:   140
 Number of Cholesky vectors:      9
 MP2 energy in ED [au]:          -0.050178800563
 Number of occupied LNOs:         7  (87.50%)
 Number of virtual  LNOs:        46  (32.86%)
 Number of Cholesky vectors:      7
 MP2 energy in LIS [au]:         -0.050159772120
 Correction for frozen LNO [au]: -0.000019028443     (0.038%)
 Number of NAFs:                137  (32.39%)
 CPU time [min]:     7.320                   Wall time [min]:     0.127
 

 Direct DF-CCSD(T) calculation
 
 Convergence criterion:  1.0E-05
 
 Number of occupied/virtual/auxiliary orbitals:     7    46   137
     14.89 MB is the minimal memory requirement for (T)
      8.84 MB is the minimal memory requirement for CCSD
 
 MP2 correlation energy [au]:       -0.257493395643
 
 LMP2 domain correlation energy contribution [au]:       -0.050153120860
 
 CPU time [min]:     7.373                   Wall time [min]:     0.128
 
 
 Starting CCSD iterations...
 
                     Residual norm       Correlation Energy
 Iteration  1        0.133439638001       -0.273883297066
 Iteration  2        0.037111314571       -0.280923093299
 Iteration  3        0.009365493680       -0.281779128067
 Iteration  4        0.002647990327       -0.281782060221
 Iteration  5        0.000651498633       -0.281799680520
 Iteration  6        0.000179111365       -0.281798853640
 Iteration  7        0.000048382741       -0.281798063466
 
 CCSD iteration has converged in  7 steps.
       26.67 MB memory was utilized by CCSD
 
 T1 diagnostic:      9.824E-03            D1 diagnostic:      2.412E-02
 
 T1 contribution [au]:                         0.000000000000
 CCSD correlation energy [au]:                -0.054119759442
 
 CPU time [min]:     7.568                   Wall time [min]:     0.132
 
 Calculation of (T) correction...
 
 Laplace threshold, nquadmin:  1.00E-03   4
 Number of quadrature points:    4
 
       16.96 MB memory is utilized for (T)

 0%       25%       50%       75%       100%
 |---------|---------|---------|---------| 
 
 (T) correction [au]:                   -0.001376791030
 CCSD(T) correlation energy [au]:       -0.055496550472
 
 CPU time [min]:     7.701                   Wall time [min]:     0.134
 
 MO:     7
 Number of atoms in domain:      12
    Number of atoms in PCD:      12
 Number of atomic orbitals:     150
 Number of atoms for local DF:   12
 Number of fitting functions:   423 (100.00%)
 Number of occupied orbitals:     8
 Number of virtual  orbitals:   140
 Number of Cholesky vectors:      9
 MP2 energy in ED [au]:          -0.050163225797
 Number of occupied LNOs:         7  (87.50%)
 Number of virtual  LNOs:        47  (33.57%)
 Number of Cholesky vectors:      7
 MP2 energy in LIS [au]:         -0.050150273018
 Correction for frozen LNO [au]: -0.000012952780     (0.026%)
 Number of NAFs:                141  (33.33%)
 CPU time [min]:     8.482                   Wall time [min]:     0.147
 

 Direct DF-CCSD(T) calculation
 
 Convergence criterion:  1.0E-05
 
 Number of occupied/virtual/auxiliary orbitals:     7    47   141
     15.72 MB is the minimal memory requirement for (T)
      9.24 MB is the minimal memory requirement for CCSD
 
 MP2 correlation energy [au]:       -0.242067707296
 
 LMP2 domain correlation energy contribution [au]:       -0.050143496248
 
 CPU time [min]:     8.536                   Wall time [min]:     0.148
 
 
 Starting CCSD iterations...
 
                     Residual norm       Correlation Energy
 Iteration  1        0.129967360425       -0.257884786836
 Iteration  2        0.035966870068       -0.264666355693
 Iteration  3        0.009159993171       -0.265509971345
 Iteration  4        0.002626509934       -0.265506258092
 Iteration  5        0.000666692334       -0.265528866539
 Iteration  6        0.000195475158       -0.265529687850
 Iteration  7        0.000056466792       -0.265528522931
 
 CCSD iteration has converged in  7 steps.
       28.67 MB memory was utilized by CCSD
 
 T1 diagnostic:      8.755E-03            D1 diagnostic:      2.298E-02
 
 T1 contribution [au]:                         0.000000000000
 CCSD correlation energy [au]:                -0.054115323849
 
 CPU time [min]:     8.736                   Wall time [min]:     0.151
 
 Calculation of (T) correction...
 
 Laplace threshold, nquadmin:  1.00E-03   4
 Number of quadrature points:    4
 
       17.90 MB memory is utilized for (T)

 0%       25%       50%       75%       100%
 |---------|---------|---------|---------| 
 
 (T) correction [au]:                   -0.001371800759
 CCSD(T) correlation energy [au]:       -0.055487124608
 
 CPU time [min]:     8.874                   Wall time [min]:     0.153
 
 MO:     8
 Number of atoms in domain:      12
    Number of atoms in PCD:      12
 Number of atomic orbitals:     150
 Number of atoms for local DF:   12
 Number of fitting functions:   423 (100.00%)
 Number of occupied orbitals:     8
 Number of virtual  orbitals:   140
 Number of Cholesky vectors:      9
 MP2 energy in ED [au]:          -0.050311039094
 Number of occupied LNOs:         8 (100.00%)
 Number of virtual  LNOs:        52  (37.14%)
 Number of Cholesky vectors:      7
 MP2 energy in LIS [au]:         -0.050289060893
 Correction for frozen LNO [au]: -0.000021978201     (0.044%)
 Number of NAFs:                157  (37.12%)
 CPU time [min]:     9.714                   Wall time [min]:     0.168
 

 Direct DF-CCSD(T) calculation
 
 Convergence criterion:  1.0E-05
 
 Number of occupied/virtual/auxiliary orbitals:     8    52   157
     20.86 MB is the minimal memory requirement for (T)
     12.05 MB is the minimal memory requirement for CCSD
 
 MP2 correlation energy [au]:       -0.346774477206
 
 LMP2 domain correlation energy contribution [au]:       -0.050282780604
 
 CPU time [min]:     9.770                   Wall time [min]:     0.169
 
 
 Starting CCSD iterations...
 
                     Residual norm       Correlation Energy
 Iteration  1        0.146618160744       -0.364127289373
 Iteration  2        0.041601812109       -0.372603231485
 Iteration  3        0.011596551451       -0.374031821150
 Iteration  4        0.003055660368       -0.374039169897
 Iteration  5        0.000772912519       -0.374060165581
 Iteration  6        0.000216669092       -0.374061553859
 Iteration  7        0.000065658971       -0.374059861094
 
 CCSD iteration has converged in  7 steps.
       40.89 MB memory was utilized by CCSD
 
 T1 diagnostic:      9.658E-03            D1 diagnostic:      2.417E-02
 
 T1 contribution [au]:                         0.000000000000
 CCSD correlation energy [au]:                -0.054132777806
 
 CPU time [min]:    10.027                   Wall time [min]:     0.173
 
 Calculation of (T) correction...
 
 Laplace threshold, nquadmin:  1.00E-03   4
 Number of quadrature points:    4
 
       25.05 MB memory is utilized for (T)

 0%       25%       50%       75%       100%
 |---------|---------|---------|---------| 
 
 (T) correction [au]:                   -0.001415175369
 CCSD(T) correlation energy [au]:       -0.055547953175
 
 CPU time [min]:    10.364                   Wall time [min]:     0.179
 
 **********************************************************************
 Dimensions of the extended domains:    Minimum / Average / Maximum
 
 Number of atoms in domain:                  12      12.0        12
 Number of atomic orbitals:                 150     150.0       150
 Number of fitting functions:               423     423.0       423
 Number of occupied localized MOs:            8       8.0         8
 Number of PAOs:                            140     140.0       140
 Number of occupied LNOs:                     7       7.2         8
 Number of virtual  LNOs:                    46      49.0        56
 Number of NAFs:                            137     146.1       166
 
 **********************************************************************
 Distant (and weak) pair contributions, corrections
 
 Sum of pair energies [au]:                     0.000000000000    (0.000%)
 Sum of energy corrections [au]:               -0.000159669646    (0.040%)
 Pair energies + LNO corrections [au]:         -0.000159669646
 Sum of LMP2 contributions [au]:               -0.403327366284
 
 **********************************************************************
  Time of manipulations in the EDs:      max CPU/Wall [s]  all CPU/Wall [min]
 
 PD construction & multipole pair E      16.52     0.31     0.28     0.01
 Construct MO basis of the ED             1.27     0.02     0.13     0.00
 (mu,nu|P) evaluation & trf 2 (ai|P)      6.46     0.10     0.78     0.01
 Evaluate MP2 energy of the ED            0.37     0.01     0.05     0.00
 Transformations to the LNO basis         0.93     0.02     0.11     0.00
 Build W_PQ (Jai or Jpi part)             0.40     0.01     0.02     0.00
 Evaluate MP2 energy of the LIS           0.11     0.00     0.01     0.00
 (mu,nu|P) evaluation & trf 2 J(abQ)     34.27     0.62     4.01     0.07
 Total of the above for all EDs          43.82     0.78     5.11     0.09
 
 **********************************************************************
 Maximum memory requirement [MB]:       
 
 PD construction & multipole pair E          2.7
 AO integral evaluation in the EDs         315.2
 (mu,nu|P) evaluation & trf 2 (aI|P)       347.7
 Evaluate MP2 energy in the EDs             17.6
 Transformation to the LNO basis             9.6
 (mu,nu|P) to Jab transformation           322.2
 Evaluate MP2 energy in the LIS             12.3
 Minimum requirement for LIS CCSD           13.9
 Actually allocated  for LIS CCSD           52.6
 Minimum requirement for LIS (T)            24.9
 Actually allocated  for LIS (T)            30.1
 
 ======================================================================
 ======================================================================
 
 
 
 ======================================================================
 ======================================================================
 
 Final local CC results:
 
 Minimum number of correlated electrons:        14       ( 87.5%)
 Maximum number of correlated electrons:        16       (100.0%)
 Average number of correlated electrons:        14.5     ( 90.6%)
 Minimum number of correlated orbitals:         53       ( 35.8%)
 Maximum number of correlated orbitals:         64       ( 43.2%)
 Average number of correlated orbitals:         56.2     ( 38.0%)
 
 CPU time for integral calculations [min]:                  0.316
 Wall time for integral calculations [min]:                 0.007
 
 CPU time for SCF calculation [min]:                        3.258
 Wall time for SCF calculation [min]:                       0.073
 
 CPU time for orbital localization [min]:                   0.218
 Wall time for orbital localization [min]:                  0.017
 
 CPU time for integral transformations [min]:               6.893
 Wall time for integral transformations [min]:              0.121
 
 Reference energy [au]:                                  -112.411304183471
 
 LMP2 correlation energy [au]:                             -0.403327366284
 Total LMP2 energy [au]:                                 -112.814631549754
 
 Total MP2 correction for dropped NAFs [au]:               -0.000047877995
 Total MP2 correction [au]:                                -0.000207547641
 
 CPU time for CCSD calculations [min]:                      2.118
 Total CPU time for CCSD [min]:                            12.804
 Wall time for CCSD calculations [min]:                     0.034
 Total wall time for CCSD [min]:                            0.253
 
 CCSD correlation energy [au]:                             -0.433242682834
 Total CCSD energy [au]:                                 -112.844546866304
 CCSD correlation energy + 0.5 MP2 corrections [au]:       -0.433346456654
 Total LNO-CCSD energy with MP2 corrections [au]:        -112.844650640125
 
 CPU time for (T) corrections [min]:                        1.375
 Total CPU time for CCSD(T) [min]:                         14.179
 Wall time for (T) corrections [min]:                       0.024
 Total wall time for CCSD(T) [min]:                         0.277
 
 Total (T) correlation energy contribution [au]:           -0.011448272794
 Total (T) correlation energy+0.5 MP2 correction [au]:     -0.011552046615
 CCSD(T) correlation energy [au]:                          -0.444690955627
 Total CCSD(T) energy [au]:                              -112.855995139098
 CCSD(T) correlation energy + MP2 corrections [au]:        -0.444898503269
 Total LNO-CCSD(T) energy with MP2 corrections [au]:     -112.856202686739
 
 ======================================================================
 ======================================================================
 
 ************************ 2026-02-26 21:33:35 *************************
                      Normal termination of mrcc.
 **********************************************************************
