 **********************************************************************
                          MRCC program system
 **********************************************************************
 
                              Written by
     Mihaly Kallay, Peter R. Nagy, David Mester, Laszlo Gyevi-Nagy,
        Jozsef Csoka, P. Bernat Szabo, Zoltan Rolik, Gyula Samu,
     Jozsef Csontos, Bence Hegely, Adam Ganyecz, Istvan Ladjanszki,
       Lorant Szegedy, Bence Ladoczki, Klara Petrov, Mate Farkas,
                    Pal D. Mezei, and Reka A. Horvath
 
        Department of Physical Chemistry and Materials Science
            Budapest University of Technology and Economics
                  Budapest P.O.Box 91, H-1521 Hungary
 
                              www.mrcc.hu
 
                     Release date: August 28, 2023

 ************************ 2026-02-26 23:37:00 *************************
 Executing minp...

 Reading input from MINP...
 
 Input file:
 
charge=0
mult=1
calc=LNO-CCSD(T)
basis=aug-cc-pVDZ
symm=off
verbosity=3
unit=angs
scfalg=locfit1
scfmaxit=200
scftol=8
basis_sm=def2-SVP
usedisk=0
aocd=extra
chtol=1d-6
iesttol=0.001
scfiguess=small
lcorthr=vtight
mem=46GB
ghost=serialno
1-8

geom=xyz
12

N      3.60995473454    6.65107191074    4.08577558721
H      4.42722968319    6.29943531034    4.59786809656
H      3.96163147006    7.16314798552    3.26841604077
H      3.09781293566    5.83383789254    3.73416418411
N      3.60995473454    6.65107191074    9.21627558721
H      4.42722968319    6.29943531034    9.72836809656
H      3.96163147006    7.16314798552    8.39891604077
H      3.09781293566    5.83383789254    8.86466418411
N      6.65105517382    4.08582522547    3.60997942338
H      7.16318242072    3.26858901465    3.96157875919
H      5.83376531255    3.73418533747    3.09787832187
H      6.29937278831    4.59789384265    4.42732807018
 
 
 Checking keyword combinations...
 
 Keywords:
 
 active=none
 agrid=ld0006-ld0590
 agrid_pssp=ld0006-ld0194
 agrid_pssp_sm=ld0006-ld0074
 basis=aug-cc-pvdz
 basis_sm=def2-svp
 basopt=off
 bfbasis=none
 bfgsmem=10
 bfgstol=1.0d-3
 boysalg=jacobi
 bpcompo=0.985
 bpcompv=0.98
 bpdfo=0.985
 bpocc=0.99999d0
 bppdo=0.999d0
 bppdv=0.98
 bpedo=0.99999d0
 bpedv=0.995d0
 calc=ccsd(t)
 ccmaxit=50
 ccprog=ccsd
 ccsdalg=dfdirect
 ccsdmkl=seq
 ccsdrest=off
 ccsdthreads=2
 cctol=5
 charge=0
 cialg=direct
 ciguess=off
 cmpgrp=auto
 comprest=off
 coord_sys=ric
 core=frozen
 corembed=off
 csapprox=off
 cvs=off
 dboc=off
 delocsomofact=
 dendec=cholesky
 dens=0
 denscorr=0
 dfalg=lineq
 dfbasis_cab=none
 dfbasis_cor=auto
 dfbasis_scf=auto
 dfbasis_scf_sm=auto
 dfintran=drpa
 dft=off
 dhexc=adc(2)
 diag=david
 docc=
 domrad=10.d0
 drpaalg=auto
 dual=off
 dual_df=off
 ecp=auto
 edisp=off
 edisp_embed=off
 embed=off
 epairestfact=off
 epairscale=1.d0
 etemp=300
 epert=none
 eps=
 espcharge=off
 excrad=1.0
 excrad_fin=0.100000000D-02
 fitting=coulomb
 fmm=off
 fmmord=8
 fnonorb=
 freq=off
 gamma=1.d0
 gauss=spher
 geom=xyz
 gopt=off
 ghost=serialno
 gtol=7
 grdens=off
 grid=auto
 grid_sm=auto
 gridbatch_cos=2000
 grtol=10
 guido_ct=off
 hamilton=dc
 iface=none
 intalg=auto
 ip_ea=off
 itol=12
 laptol=1.d-3
 lccoporder=lccfirst
 lcorthr=vtight
 lccrest=off
 ldfgrad_tol=8
 lmp2dens=on
 lnoepso=1e-6
 lnoepsv=1e-7
 localcc=2021
 localcorrsymm=off
 locintrf=direct
 mact=
 maxact=off
 maxdim=200
 maxex=0
 maxmicroit=100
 mcscfiguess=hf
 mem=46gb
 mmprog=
 molden=on
 mpitasks=1
 mulmet=3
 mult=1
 nab=off
 nacto=0
 nactv=0
 naf_amp=3.16d-3
 naf_cor=1e-3
 naf_f12=off
 naf_scf=off
 nafalg=albe
 nafdens=off
 naftyp=jpq
 nchol=auto
 ndeps=1e-3
 nstate=1
 nsing=0
 nto=off
 ntrip=0
 num_grad=off
 occ=
 occri=off
 oniom=off
 oniom_eechg=off
 oniom_pcm=off
 oniom_qcorr=off
 optalg=
 optmaxit=50
 optetol=1e-6
 optex=0
 optgtol=1e-4
 optstol=1e-3
 orblocc=off
 orbloce=off
 orbloco=boys
 orblocv=pao
 orblocguess=cholesky
 osveps=-1.d0
 ovirt=off
 ovltol=1e-7
 ovosnorb=80.0
 pao_subsys_tol=1e-3
 pcm=off
 popul=off
 pressure=100000
 pssp=off
 ptfreq=0.0
 ptthreads=2
 qmreg=
 qmmm=off
 qro=off
 qscf=off
 redcost_exc=off
 redcost_tddft=0.985d0
 refdet=none
 rest=0
 rgrid=log3
 rism=off
 rohfcore=standard
 rohftype=semicanonical
 scfalg=locfit1
 scf_conv=auto
 scfdamp=0.0d0
 scfdamp_mode=off
 scfdamp_end=200
 scfdamp_dampstep=0.d0
 scfdamp_dtol=0.0d0
 scfdamp_maxfact=0.0d0
 scfdamp_minfact=0.0d0
 scfdiis=on
 scfdiis_dtol=0.0d0
 scfdiis_end=200
 scfdiis_start=2
 scfdiis_step=1
 scfdiis_watch=off
 scfdiis_wrange=10
 scfdiis_wlimit=5
 scfdiis_delmax=2
 scfdtol=9
 scfext=10
 scfguessdens=
 scfiguess=small
 scfloc=pm
 scflshift=0.20
 scflshift_end=8
 scflshift_dtol=0.0
 scflshift_gaptol=0.20
 scfmaxit=200
 scftype=
 scftol=8
 scspe=1.d0
 scsph=1.d0
 scsps=1.2d0
 scsps_t=1.2d0
 scspt=0.33333333333333
 scspt_t=0.33333333333333
 scspv=1.d0
 spairtol=-1.d0
 sqmprog=
 subminp=top
 symm=0
 talg=lapl
 temp=298.15
 test=off
 theodore=off
 tlmo=0.999
 tpao=0.94
 tprint=off
 uncontract=off
 unit=angs
 usedisk=0
 verbosity=3
 wpairtol=1.d-6
 
 Calculating integrals for small-basis SCF...

 ************************ 2026-02-26 23:37:01 *************************
 Executing integ...

 Allocation of 46.0 Gbytes of memory...
 
 
 Number of atoms:                 12
 Charge:                           0
 Number of electrons:             10
 Number of core electrons:         2
 Spin multiplicity:                1
 
                 Cartesian coordinates [bohr]      Atomic mass [AMU]  Z
   1  N     6.82182577   12.56870435    7.72099687     0.000000       0
   2  H     8.36625160   11.90420748    8.68871146     0.000000       0
   3  H     7.48639849   13.53638789    6.17641118     0.000000       0
   4  H     5.85401804   11.02435588    7.05654762     0.000000       0
   5  N     6.82182577   12.56870435   17.41623676     0.000000       0
   6  H     8.36625160   11.90420748   18.38395135     0.000000       0
   7  H     7.48639849   13.53638789   15.87165107     0.000000       0
   8  H     5.85401804   11.02435588   16.75178750     0.000000       0
   9  N    12.56867272    7.72109067    6.82187243    14.003074       7
  10  H    13.53645296    6.17673805    7.48629888     1.007825       1
  11  H    11.02421872    7.05658759    5.85414160     1.007825       1
  12  H    11.90408933    8.68876012    8.36643752     1.007825       1
 
 This molecule is an asymmetric top.
 
 Point group: C1  
 Computational point group: C1  
 
 Cartesian coordinates in standard orientation [bohr]
   1  N     4.24095014    4.62637682   -0.09314190
   2  H     3.84251283    2.78651597   -0.56158455
   3  H     3.21588246    5.75730547   -1.29066013
   4  H     3.55840948    4.92214906    1.69845344
   5  N    11.27492263   -2.04345257    0.09201581
   6  H    10.87648532   -3.88331342   -0.37642684
   7  H    10.24985494   -0.91252392   -1.10550241
   8  H    10.59238197   -1.74768033    1.88361115
   9  N    -1.58461171   -0.21063564   -0.10628348
  10  H    -2.30423826   -1.91953537    0.46370376
  11  H    -1.78949222    1.02120125    1.37830648
  12  H     0.31903076   -0.45607129   -0.38849484
 
 Nuclear repulsion energy [au]:         11.785806804837
 
Warning: for H atoms in the case of dfbasis_scf=auto the AO basis is set as dfbasis_scf instead of def2-qzvp(pd)-ri-jk because the AO basis is larger. Set the dfbasis_scf=def2-qzvp(pd)-ri-jk in MINP if that is desired.
 
 
 Basis set information:
 
 Maximum angular momentum: g
 Maximum number of contracted Gaussians:   10
 Maximum number of primitive Gaussians:    14
 Spherical harmonic GTOs are used.
 
 
 Conventional basis set:
 
   1  N  def2-svp [ 7s 4p 1d | 3s 2p 1d ]
   2  H  def2-svp [ 4s 1p | 2s 1p ]
   3  H  def2-svp [ 4s 1p | 2s 1p ]
   4  H  def2-svp [ 4s 1p | 2s 1p ]
   5  N  def2-svp [ 7s 4p 1d | 3s 2p 1d ]
   6  H  def2-svp [ 4s 1p | 2s 1p ]
   7  H  def2-svp [ 4s 1p | 2s 1p ]
   8  H  def2-svp [ 4s 1p | 2s 1p ]
   9  N  def2-svp [ 7s 4p 1d | 3s 2p 1d ]
  10  H  def2-svp [ 4s 1p | 2s 1p ]
  11  H  def2-svp [ 4s 1p | 2s 1p ]
  12  H  def2-svp [ 4s 1p | 2s 1p ]
 
 Basis functions:
            1             2             3             4             5             6             7             8             9            10
    0    1N1s          1N2s          1N3s          1N1pz         1N1py         1N1px         1N2pz         1N2py         1N2px         1N1d-2    
    1    1N1d-1        1N1d0         1N1d+1        1N1d+2        2H1s          2H2s          2H1pz         2H1py         2H1px         3H1s      
    2    3H2s          3H1pz         3H1py         3H1px         4H1s          4H2s          4H1pz         4H1py         4H1px         5N1s      
    3    5N2s          5N3s          5N1pz         5N1py         5N1px         5N2pz         5N2py         5N2px         5N1d-2        5N1d-1    
    4    5N1d0         5N1d+1        5N1d+2        6H1s          6H2s          6H1pz         6H1py         6H1px         7H1s          7H2s      
    5    7H1pz         7H1py         7H1px         8H1s          8H2s          8H1pz         8H1py         8H1px         9N1s          9N2s      
    6    9N3s          9N1pz         9N1py         9N1px         9N2pz         9N2py         9N2px         9N1d-2        9N1d-1        9N1d0     
    7    9N1d+1        9N1d+2       10H1s         10H2s         10H1pz        10H1py        10H1px        11H1s         11H2s         11H1pz     
    8   11H1py        11H1px        12H1s         12H2s         12H1pz        12H1py        12H1px     
 
 Maximum number of basis functions per shell:    6
 Total number of basis functions:     87
 
 
 Fitting basis set for the SCF calculation:
 
   1  N  def2-qzvpp-ri-jk [ 14s 10p 6d 2f 1g | 10s 8p 4d 2f 1g ]
   2  H  def2-qzvpp [ 7s 3p 2d 1f | 4s 3p 2d 1f ]
   3  H  def2-qzvpp [ 7s 3p 2d 1f | 4s 3p 2d 1f ]
   4  H  def2-qzvpp [ 7s 3p 2d 1f | 4s 3p 2d 1f ]
   5  N  def2-qzvpp-ri-jk [ 14s 10p 6d 2f 1g | 10s 8p 4d 2f 1g ]
   6  H  def2-qzvpp [ 7s 3p 2d 1f | 4s 3p 2d 1f ]
   7  H  def2-qzvpp [ 7s 3p 2d 1f | 4s 3p 2d 1f ]
   8  H  def2-qzvpp [ 7s 3p 2d 1f | 4s 3p 2d 1f ]
   9  N  def2-qzvpp-ri-jk [ 14s 10p 6d 2f 1g | 10s 8p 4d 2f 1g ]
  10  H  def2-qzvpp [ 7s 3p 2d 1f | 4s 3p 2d 1f ]
  11  H  def2-qzvpp [ 7s 3p 2d 1f | 4s 3p 2d 1f ]
  12  H  def2-qzvpp [ 7s 3p 2d 1f | 4s 3p 2d 1f ]
 
 Basis functions:
            1             2             3             4             5             6             7             8             9            10
    0    1N1s          1N2s          1N3s          1N4s          1N5s          1N6s          1N7s          1N8s          1N9s          1N10s     
    1    1N1pz         1N1py         1N1px         1N2pz         1N2py         1N2px         1N3pz         1N3py         1N3px         1N4pz     
    2    1N4py         1N4px         1N5pz         1N5py         1N5px         1N6pz         1N6py         1N6px         1N7pz         1N7py     
    3    1N7px         1N8pz         1N8py         1N8px         1N1d-2        1N1d-1        1N1d0         1N1d+1        1N1d+2        1N2d-2    
    4    1N2d-1        1N2d0         1N2d+1        1N2d+2        1N3d-2        1N3d-1        1N3d0         1N3d+1        1N3d+2        1N4d-2    
    5    1N4d-1        1N4d0         1N4d+1        1N4d+2        1N1f-3        1N1f-2        1N1f-1        1N1f0         1N1f+1        1N1f+2    
    6    1N1f+3        1N2f-3        1N2f-2        1N2f-1        1N2f0         1N2f+1        1N2f+2        1N2f+3        1N1g-4        1N1g-3    
    7    1N1g-2        1N1g-1        1N1g0         1N1g+1        1N1g+2        1N1g+3        1N1g+4        2H1s          2H2s          2H3s      
    8    2H4s          2H1pz         2H1py         2H1px         2H2pz         2H2py         2H2px         2H3pz         2H3py         2H3px     
    9    2H1d-2        2H1d-1        2H1d0         2H1d+1        2H1d+2        2H2d-2        2H2d-1        2H2d0         2H2d+1        2H2d+2    
   10    2H1f-3        2H1f-2        2H1f-1        2H1f0         2H1f+1        2H1f+2        2H1f+3        3H1s          3H2s          3H3s      
   11    3H4s          3H1pz         3H1py         3H1px         3H2pz         3H2py         3H2px         3H3pz         3H3py         3H3px     
   12    3H1d-2        3H1d-1        3H1d0         3H1d+1        3H1d+2        3H2d-2        3H2d-1        3H2d0         3H2d+1        3H2d+2    
   13    3H1f-3        3H1f-2        3H1f-1        3H1f0         3H1f+1        3H1f+2        3H1f+3        4H1s          4H2s          4H3s      
   14    4H4s          4H1pz         4H1py         4H1px         4H2pz         4H2py         4H2px         4H3pz         4H3py         4H3px     
   15    4H1d-2        4H1d-1        4H1d0         4H1d+1        4H1d+2        4H2d-2        4H2d-1        4H2d0         4H2d+1        4H2d+2    
   16    4H1f-3        4H1f-2        4H1f-1        4H1f0         4H1f+1        4H1f+2        4H1f+3        5N1s          5N2s          5N3s      
   17    5N4s          5N5s          5N6s          5N7s          5N8s          5N9s          5N10s         5N1pz         5N1py         5N1px     
   18    5N2pz         5N2py         5N2px         5N3pz         5N3py         5N3px         5N4pz         5N4py         5N4px         5N5pz     
   19    5N5py         5N5px         5N6pz         5N6py         5N6px         5N7pz         5N7py         5N7px         5N8pz         5N8py     
   20    5N8px         5N1d-2        5N1d-1        5N1d0         5N1d+1        5N1d+2        5N2d-2        5N2d-1        5N2d0         5N2d+1    
   21    5N2d+2        5N3d-2        5N3d-1        5N3d0         5N3d+1        5N3d+2        5N4d-2        5N4d-1        5N4d0         5N4d+1    
   22    5N4d+2        5N1f-3        5N1f-2        5N1f-1        5N1f0         5N1f+1        5N1f+2        5N1f+3        5N2f-3        5N2f-2    
   23    5N2f-1        5N2f0         5N2f+1        5N2f+2        5N2f+3        5N1g-4        5N1g-3        5N1g-2        5N1g-1        5N1g0     
   24    5N1g+1        5N1g+2        5N1g+3        5N1g+4        6H1s          6H2s          6H3s          6H4s          6H1pz         6H1py     
   25    6H1px         6H2pz         6H2py         6H2px         6H3pz         6H3py         6H3px         6H1d-2        6H1d-1        6H1d0     
   26    6H1d+1        6H1d+2        6H2d-2        6H2d-1        6H2d0         6H2d+1        6H2d+2        6H1f-3        6H1f-2        6H1f-1    
   27    6H1f0         6H1f+1        6H1f+2        6H1f+3        7H1s          7H2s          7H3s          7H4s          7H1pz         7H1py     
   28    7H1px         7H2pz         7H2py         7H2px         7H3pz         7H3py         7H3px         7H1d-2        7H1d-1        7H1d0     
   29    7H1d+1        7H1d+2        7H2d-2        7H2d-1        7H2d0         7H2d+1        7H2d+2        7H1f-3        7H1f-2        7H1f-1    
   30    7H1f0         7H1f+1        7H1f+2        7H1f+3        8H1s          8H2s          8H3s          8H4s          8H1pz         8H1py     
   31    8H1px         8H2pz         8H2py         8H2px         8H3pz         8H3py         8H3px         8H1d-2        8H1d-1        8H1d0     
   32    8H1d+1        8H1d+2        8H2d-2        8H2d-1        8H2d0         8H2d+1        8H2d+2        8H1f-3        8H1f-2        8H1f-1    
   33    8H1f0         8H1f+1        8H1f+2        8H1f+3        9N1s          9N2s          9N3s          9N4s          9N5s          9N6s      
   34    9N7s          9N8s          9N9s          9N10s         9N1pz         9N1py         9N1px         9N2pz         9N2py         9N2px     
   35    9N3pz         9N3py         9N3px         9N4pz         9N4py         9N4px         9N5pz         9N5py         9N5px         9N6pz     
   36    9N6py         9N6px         9N7pz         9N7py         9N7px         9N8pz         9N8py         9N8px         9N1d-2        9N1d-1    
   37    9N1d0         9N1d+1        9N1d+2        9N2d-2        9N2d-1        9N2d0         9N2d+1        9N2d+2        9N3d-2        9N3d-1    
   38    9N3d0         9N3d+1        9N3d+2        9N4d-2        9N4d-1        9N4d0         9N4d+1        9N4d+2        9N1f-3        9N1f-2    
   39    9N1f-1        9N1f0         9N1f+1        9N1f+2        9N1f+3        9N2f-3        9N2f-2        9N2f-1        9N2f0         9N2f+1    
   40    9N2f+2        9N2f+3        9N1g-4        9N1g-3        9N1g-2        9N1g-1        9N1g0         9N1g+1        9N1g+2        9N1g+3    
   41    9N1g+4       10H1s         10H2s         10H3s         10H4s         10H1pz        10H1py        10H1px        10H2pz        10H2py     
   42   10H2px        10H3pz        10H3py        10H3px        10H1d-2       10H1d-1       10H1d0        10H1d+1       10H1d+2       10H2d-2    
   43   10H2d-1       10H2d0        10H2d+1       10H2d+2       10H1f-3       10H1f-2       10H1f-1       10H1f0        10H1f+1       10H1f+2    
   44   10H1f+3       11H1s         11H2s         11H3s         11H4s         11H1pz        11H1py        11H1px        11H2pz        11H2py     
   45   11H2px        11H3pz        11H3py        11H3px        11H1d-2       11H1d-1       11H1d0        11H1d+1       11H1d+2       11H2d-2    
   46   11H2d-1       11H2d0        11H2d+1       11H2d+2       11H1f-3       11H1f-2       11H1f-1       11H1f0        11H1f+1       11H1f+2    
   47   11H1f+3       12H1s         12H2s         12H3s         12H4s         12H1pz        12H1py        12H1px        12H2pz        12H2py     
   48   12H2px        12H3pz        12H3py        12H3px        12H1d-2       12H1d-1       12H1d0        12H1d+1       12H1d+2       12H2d-2    
   49   12H2d-1       12H2d0        12H2d+1       12H2d+2       12H1f-3       12H1f-2       12H1f-1       12H1f0        12H1f+1       12H1f+2    
   50   12H1f+3    
 
 Maximum number of basis functions per shell:   24
 Total number of basis functions:    501
 
 
 Initializing the SAD routines for the initial guess...
 Checking the files required for the initial guess...
 Atomic density files have been found for the atoms with the following serial numbers:
  
 Atomic density files have not been found for the atoms with the following serial numbers:
  9 10 11 12
 Generating SCFDENSITIES.N.def2-svp.0
 Generating SCFDENSITIES.H.def2-svp.0
 CPU time [min]:     0.217                   Wall time [min]:     0.138
 
 Character table for point group C1:
 
          E  
    A     1
 
 Number of basis functions per irrep:
    A      87
 
 
 Calculation of overlap integrals...
 CPU time [min]:     0.221                   Wall time [min]:     0.139
 
 Calculation of the square root of the overlap matrix...
 Minimum eigenvalue of the overlap matrix: 0.238174E-01
 CPU time [min]:     0.233                   Wall time [min]:     0.139
 
 Calculation of kinetic energy integrals...
 CPU time [min]:     0.234                   Wall time [min]:     0.139
 Calculation of dipole moment integrals...
 CPU time [min]:     0.235                   Wall time [min]:     0.139
 Calculation of nuclear attraction integrals...
 CPU time [min]:     0.236                   Wall time [min]:     0.139
 
 Calculation of prescreening integrals...
 CPU time [min]:     0.255                   Wall time [min]:     0.139
 
 Calculation of two-center Coulomb integrals...
   1% done.
  13% done.
  24% done.
  35% done.
  47% done.
  60% done.
  72% done.
  86% done.
  97% done.
 100% done.
 CPU time [min]:     0.267                   Wall time [min]:     0.139
 
 Cholesky decomposition of the two-center matrix...
 Reciprocal of the condition number:  0.808298E-05
 CPU time [min]:     0.293                   Wall time [min]:     0.140
 
 
 Running small-basis SCF...

 ************************ 2026-02-26 23:37:10 *************************
 Executing scf...

 @scfsetup: integrals calculated directly
            mrcc/integ direct run
 @scfsetup: calculating on full matrices
            not using symmetry adapted basis
 @scfsetup: diis switched on
 @scfsetup: number of steps to extrapolate from  10
 @scfsetup: tolerance in energy deviation    0.100000E-07
            tolerance in density deviation    0.100000E-08
 @scfsetup: maximum number of iterations: 200
 @scfsetup: restricted closed shell hf calc
 @scfsetup: starting scf from superposition of atomic densities
 @scfsetup: occupation set:
            from initial orbitals
 @scfsetup: Parameter-set for SCF acceleration: normal
 @scfsetup: diis runs from iteration:   2
 @scfsetup: diis runs to iteration: 200
 @scfsetup: diis runs in every iteration
 @scfsetup: diiswatch is disabled                   
 @scfsetup: diis dtol criteria to switch on:      0.0000E+00
           (or the iteration number below is reached)
 @scfsetup: static damping scheme
            iteration step criteria to turn damping off: 3
 @scfsetup: dynamic level shifting
            tolarance in HOMO-LUMO gap:  0.200
            tolarance in density deviation:     0.0000E+00
            iteration step criteria to turn level shifting off: 8
 Allocation of 46.0 Gbytes of memory...
 ======================================================================
 ITERATION STEP   1
 CPU time [min]:     0.039                   Wall time [min]:     0.008
 

 SCF control                  : initial
 Damping factor/level shift   : 0.000/0.200
 DIIS [start/end/frequency]   :   2 /200 /  1

 Constructing Fock-matrix...
 
 Pipek-Mezey localization...
 Step  Convergence
   1   0.836445328368
   2   0.004394037211
   3   0.000000318674
   4   0.000000000016
 CPU time [min]:     0.065                   Wall time [min]:     0.009
 
 Constructing local fitting domains...
 Maximum number of atoms in fitting domains:    5
 Average number of atoms in fitting domains:    4.2
 
 First step of Coulomb + first step of exchange...
 Exchange contribution is evaluated for MOs 1 to 5.
   1% done.
  14% done.
  25% done.
  37% done.
  49% done.
  60% done.
  72% done.
  83% done.
 100% done.
 Fitting and assembly step of exchange...
 CPU time [min]:     0.150                   Wall time [min]:     0.010
 
 Second step of Coulomb...
   1% done.
  14% done.
  25% done.
  37% done.
  49% done.
  60% done.
  72% done.
  83% done.
 100% done.
 CPU time [min]:     0.175                   Wall time [min]:     0.011
 
 Gradient norm:      2.3664E+00
 RMS of [F,P]:                                         0.02510098014457
 RMS of difference density:                            0.00910126814658
 Gap [au]:  0.65355582
 ALPHA OCC:   5
 BETA  OCC:   5
 
 ***HARTREE-FOCK ENERGY IN STEP   1 IS        -55.8598424636579765 [AU]
 ======================================================================
 ITERATION STEP   2
 CPU time [min]:     0.203                   Wall time [min]:     0.011
 

 SCF control                  : diis
 Damping factor/level shift   : 0.000/0.000
 DIIS [start/end/frequency]   :   2 /200 /  1

 Constructing Fock-matrix...
 
 Pipek-Mezey localization...
 Step  Convergence
   1   0.010392625231
   2   0.009963722497
   3   0.000000795532
   4   0.000000000353
 CPU time [min]:     0.226                   Wall time [min]:     0.012
 
 Constructing local fitting domains...
 Maximum number of atoms in fitting domains:    5
 Average number of atoms in fitting domains:    4.2
 
 First step of Coulomb + first step of exchange...
 Exchange contribution is evaluated for MOs 1 to 5.
   1% done.
  14% done.
  25% done.
  37% done.
  49% done.
  60% done.
  72% done.
  83% done.
 100% done.
 Fitting and assembly step of exchange...
 CPU time [min]:     0.300                   Wall time [min]:     0.013
 
 Second step of Coulomb...
   1% done.
  14% done.
  25% done.
  37% done.
  49% done.
  60% done.
  72% done.
  83% done.
 100% done.
 CPU time [min]:     0.325                   Wall time [min]:     0.013
 
 Gradient norm:      3.2186E-01
 DIIS is running in this iteration step.
 RMS of [F,P]:                                         0.00536312212034
 RMS of difference density:                            0.00420266742423
 Gap [au]:  0.46991223
 ALPHA OCC:   5
 BETA  OCC:   5
 
 ***HARTREE-FOCK ENERGY IN STEP   2 IS        -56.1231331413537688 [AU]
 
 Step comparison  Energy Drift [au]  DIIS error drift  Gradient drift
        1            2.6329E-01         1.9738E-02       2.0445E+00
        2            5.6123E+01         1.0000E-09       2.0445E+00
 ======================================================================
 ITERATION STEP   3
 CPU time [min]:     0.340                   Wall time [min]:     0.013
 

 SCF control                  : diis
 Damping factor/level shift   : 0.000/0.000
 DIIS [start/end/frequency]   :   2 /200 /  1

 Constructing Fock-matrix...
 
 Pipek-Mezey localization...
 Step  Convergence
   1   0.020199499416
   2   0.020277122060
   3   0.000001829976
   4   0.000000001546
 CPU time [min]:     0.363                   Wall time [min]:     0.014
 
 Constructing local fitting domains...
 Local fitting domains are unchanged.
 
 First step of Coulomb + first step of exchange...
 Exchange contribution is evaluated for MOs 1 to 5.
   1% done.
  14% done.
  25% done.
  37% done.
  49% done.
  60% done.
  72% done.
  83% done.
 100% done.
 Fitting and assembly step of exchange...
 CPU time [min]:     0.435                   Wall time [min]:     0.015
 
 Second step of Coulomb...
   1% done.
  14% done.
  25% done.
  37% done.
  49% done.
  60% done.
  72% done.
  83% done.
 100% done.
 CPU time [min]:     0.459                   Wall time [min]:     0.015
 
 Gradient norm:      1.2379E-01
 DIIS is running in this iteration step.
 RMS of [F,P]:                                         0.00255260503959
 RMS of difference density:                            0.00127948531532
 Gap [au]:  0.53125095
 ALPHA OCC:   5
 BETA  OCC:   5
 
 ***HARTREE-FOCK ENERGY IN STEP   3 IS        -56.1423892668409366 [AU]
 
 Step comparison  Energy Drift [au]  DIIS error drift  Gradient drift
        2            1.9256E-02         2.8105E-03       1.9807E-01
 ======================================================================
 ITERATION STEP   4
 CPU time [min]:     0.475                   Wall time [min]:     0.016
 

 SCF control                  : diis
 Damping factor/level shift   : 0.000/0.000
 DIIS [start/end/frequency]   :   2 /200 /  1

 Constructing Fock-matrix...
 
 Pipek-Mezey localization...
 Step  Convergence
   1   0.019964328915
   2   0.020280886975
   3   0.000001743537
   4   0.000000000181
 CPU time [min]:     0.509                   Wall time [min]:     0.016
 
 Constructing local fitting domains...
 Local fitting domains are unchanged.
 
 First step of Coulomb + first step of exchange...
 Exchange contribution is evaluated for MOs 1 to 5.
   1% done.
  14% done.
  25% done.
  37% done.
  49% done.
  60% done.
  72% done.
  83% done.
 100% done.
 Fitting and assembly step of exchange...
 CPU time [min]:     0.580                   Wall time [min]:     0.017
 
 Second step of Coulomb...
   1% done.
  14% done.
  25% done.
  37% done.
  49% done.
  60% done.
  72% done.
  83% done.
 100% done.
 CPU time [min]:     0.605                   Wall time [min]:     0.018
 
 Gradient norm:      2.4132E-02
 DIIS is running in this iteration step.
 RMS of [F,P]:                                         0.00031582669266
 RMS of difference density:                            0.00031885388311
 Gap [au]:  0.52313473
 ALPHA OCC:   5
 BETA  OCC:   5
 
 ***HARTREE-FOCK ENERGY IN STEP   4 IS        -56.1476371394327742 [AU]
 
 Step comparison  Energy Drift [au]  DIIS error drift  Gradient drift
        3            5.2479E-03         2.2368E-03       9.9662E-02
 ======================================================================
 ITERATION STEP   5
 CPU time [min]:     0.620                   Wall time [min]:     0.018
 

 SCF control                  : diis
 Damping factor/level shift   : 0.000/0.000
 DIIS [start/end/frequency]   :   2 /200 /  1

 Constructing Fock-matrix...
 
 Pipek-Mezey localization...
 Step  Convergence
   1   0.030017349646
   2   0.030254189580
   3   0.000001131372
   4   0.000000001430
 CPU time [min]:     0.643                   Wall time [min]:     0.019
 
 Constructing local fitting domains...
 Local fitting domains are unchanged.
 
 First step of Coulomb + first step of exchange...
 Exchange contribution is evaluated for MOs 1 to 5.
   1% done.
  14% done.
  25% done.
  37% done.
  49% done.
  60% done.
  72% done.
  83% done.
 100% done.
 Fitting and assembly step of exchange...
 CPU time [min]:     0.714                   Wall time [min]:     0.020
 
 Second step of Coulomb...
   1% done.
  14% done.
  25% done.
  37% done.
  49% done.
  60% done.
  72% done.
  83% done.
 100% done.
 CPU time [min]:     0.738                   Wall time [min]:     0.020
 
 Gradient norm:      1.8789E-03
 DIIS is running in this iteration step.
 RMS of [F,P]:                                         0.00005244756173
 RMS of difference density:                            0.00004434466460
 Gap [au]:  0.52337993
 ALPHA OCC:   5
 BETA  OCC:   5
 
 ***HARTREE-FOCK ENERGY IN STEP   5 IS        -56.1477975694073876 [AU]
 
 Step comparison  Energy Drift [au]  DIIS error drift  Gradient drift
        4            1.6043E-04         2.6338E-04       2.2253E-02
 ======================================================================
 ITERATION STEP   6
 CPU time [min]:     0.752                   Wall time [min]:     0.020
 

 SCF control                  : diis
 Damping factor/level shift   : 0.000/0.000
 DIIS [start/end/frequency]   :   2 /200 /  1

 Constructing Fock-matrix...
 
 Pipek-Mezey localization...
 Step  Convergence
   1   0.040274280315
   2   0.040397899887
   3   0.000003663525
   4   0.000000002311
   5   0.000000000007
   6   0.000000000000
 CPU time [min]:     0.775                   Wall time [min]:     0.021
 
 Constructing local fitting domains...
 Local fitting domains are unchanged.
 
 First step of Coulomb + first step of exchange...
 Exchange contribution is evaluated for MOs 1 to 5.
   1% done.
  14% done.
  25% done.
  37% done.
  49% done.
  60% done.
  72% done.
  83% done.
 100% done.
 Fitting and assembly step of exchange...
 CPU time [min]:     0.847                   Wall time [min]:     0.022
 
 Second step of Coulomb...
   1% done.
  14% done.
  25% done.
  37% done.
  49% done.
  60% done.
  72% done.
  83% done.
 100% done.
 CPU time [min]:     0.871                   Wall time [min]:     0.022
 
 Gradient norm:      3.1694E-04
 DIIS is running in this iteration step.
 RMS of [F,P]:                                         0.00000546907417
 RMS of difference density:                            0.00000414609591
 Gap [au]:  0.52341992
 ALPHA OCC:   5
 BETA  OCC:   5
 
 ***HARTREE-FOCK ENERGY IN STEP   6 IS        -56.1478008776527204 [AU]
 
 Step comparison  Energy Drift [au]  DIIS error drift  Gradient drift
        5            3.3082E-06         4.6978E-05       1.5620E-03
 ======================================================================
 ITERATION STEP   7
 CPU time [min]:     0.886                   Wall time [min]:     0.023
 

 SCF control                  : diis
 Damping factor/level shift   : 0.000/0.000
 DIIS [start/end/frequency]   :   2 /200 /  1

 Constructing Fock-matrix...
 
 Pipek-Mezey localization...
 Step  Convergence
   1   0.040162200502
   2   0.040290694023
   3   0.000002292674
   4   0.000000000938
   5   0.000000000000
 CPU time [min]:     0.909                   Wall time [min]:     0.023
 
 Constructing local fitting domains...
 Local fitting domains are unchanged.
 
 First step of Coulomb + first step of exchange...
 Exchange contribution is evaluated for MOs 1 to 5.
   1% done.
  14% done.
  25% done.
  37% done.
  49% done.
  60% done.
  72% done.
  83% done.
 100% done.
 Fitting and assembly step of exchange...
 CPU time [min]:     0.980                   Wall time [min]:     0.024
 
 Second step of Coulomb...
   1% done.
  14% done.
  25% done.
  37% done.
  49% done.
  60% done.
  72% done.
  83% done.
 100% done.
 CPU time [min]:     1.005                   Wall time [min]:     0.024
 
 Gradient norm:      7.6715E-05
 DIIS is running in this iteration step.
 RMS of [F,P]:                                         0.00000088212505
 RMS of difference density:                            0.00000095884469
 Gap [au]:  0.52340904
 ALPHA OCC:   5
 BETA  OCC:   5
 
 ***HARTREE-FOCK ENERGY IN STEP   7 IS        -56.1478009133925440 [AU]
 
 Step comparison  Energy Drift [au]  DIIS error drift  Gradient drift
        6            3.5740E-08         4.5869E-06       2.4022E-04
 ======================================================================
 ITERATION STEP   8
 CPU time [min]:     1.020                   Wall time [min]:     0.025
 

 SCF control                  : diis
 Damping factor/level shift   : 0.000/0.000
 DIIS [start/end/frequency]   :   2 /200 /  1

 Constructing Fock-matrix...
 
 Pipek-Mezey localization...
 Step  Convergence
   1   0.045145130539
   2   0.046350882507
   3   0.000027763841
   4   0.000000000325
   5   0.000000000000
 CPU time [min]:     1.044                   Wall time [min]:     0.025
 
 Constructing local fitting domains...
 Local fitting domains are unchanged.
 
 First step of Coulomb + first step of exchange...
 Exchange contribution is evaluated for MOs 1 to 5.
   1% done.
  14% done.
  25% done.
  37% done.
  49% done.
  60% done.
  72% done.
  83% done.
 100% done.
 Fitting and assembly step of exchange...
 CPU time [min]:     1.116                   Wall time [min]:     0.026
 
 Second step of Coulomb...
   1% done.
  14% done.
  25% done.
  37% done.
  49% done.
  60% done.
  72% done.
  83% done.
 100% done.
 CPU time [min]:     1.141                   Wall time [min]:     0.027
 
 Gradient norm:      1.0824E-05
 DIIS is running in this iteration step.
 RMS of [F,P]:                                         0.00000018312309
 RMS of difference density:                            0.00000032569790
 Gap [au]:  0.52340470
 ALPHA OCC:   5
 BETA  OCC:   5
 
 ***HARTREE-FOCK ENERGY IN STEP   8 IS        -56.1478009150350772 [AU]
 
 Step comparison  Energy Drift [au]  DIIS error drift  Gradient drift
        7            1.6425E-09         6.9900E-07       6.5891E-05
 ======================================================================
 ITERATION STEP   9
 CPU time [min]:     1.156                   Wall time [min]:     0.027
 

 SCF control                  : diis
 Damping factor/level shift   : 0.000/0.000
 DIIS [start/end/frequency]   :   2 /200 /  1

 Constructing Fock-matrix...
 
 Pipek-Mezey localization...
 Step  Convergence
   1   0.045448600194
   2   0.044417656830
   3   0.000005590677
   4   0.000000002050
   5   0.000000000002
   6   0.000000000000
 CPU time [min]:     1.179                   Wall time [min]:     0.027
 
 Constructing local fitting domains...
 Local fitting domains are unchanged.
 
 First step of Coulomb + first step of exchange...
 Exchange contribution is evaluated for MOs 1 to 5.
   1% done.
  14% done.
  25% done.
  37% done.
  49% done.
  60% done.
  72% done.
  83% done.
 100% done.
 Fitting and assembly step of exchange...
 CPU time [min]:     1.251                   Wall time [min]:     0.029
 
 Second step of Coulomb...
   1% done.
  14% done.
  25% done.
  37% done.
  49% done.
  60% done.
  72% done.
  83% done.
 100% done.
 CPU time [min]:     1.275                   Wall time [min]:     0.029
 
 Gradient norm:      2.7014E-06
 DIIS is running in this iteration step.
 RMS of [F,P]:                                         0.00000003203368
 RMS of difference density:                            0.00000009478393
 Gap [au]:  0.52340438
 ALPHA OCC:   5
 BETA  OCC:   5
 
 ***HARTREE-FOCK ENERGY IN STEP   9 IS        -56.1478009151388520 [AU]
 
 Step comparison  Energy Drift [au]  DIIS error drift  Gradient drift
        8            1.0377E-10         1.5109E-07       8.1221E-06
 ======================================================================
 ITERATION STEP  10
 CPU time [min]:     1.295                   Wall time [min]:     0.029
 

 SCF control                  : diis
 Damping factor/level shift   : 0.000/0.000
 DIIS [start/end/frequency]   :   2 /200 /  1

 Constructing Fock-matrix...
 
 Pipek-Mezey localization...
 Step  Convergence
   1   0.045045000622
   2   0.046398100404
   3   0.000069659141
   4   0.000000254642
   5   0.000000002160
   6   0.000000000012
   7   0.000000000000
 CPU time [min]:     1.319                   Wall time [min]:     0.030
 
 Constructing local fitting domains...
 Local fitting domains are unchanged.
 
 First step of Coulomb + first step of exchange...
 Exchange contribution is evaluated for MOs 1 to 5.
   1% done.
  14% done.
  25% done.
  37% done.
  49% done.
  60% done.
  72% done.
  83% done.
 100% done.
 Fitting and assembly step of exchange...
 CPU time [min]:     1.390                   Wall time [min]:     0.031
 
 Second step of Coulomb...
   1% done.
  14% done.
  25% done.
  37% done.
  49% done.
  60% done.
  72% done.
  83% done.
 100% done.
 CPU time [min]:     1.415                   Wall time [min]:     0.031
 
 Gradient norm:      5.5050E-07
 DIIS is running in this iteration step.
 RMS of [F,P]:                                         0.00000000731523
 RMS of difference density:                            0.00000002393838
 Gap [au]:  0.52340442
 ALPHA OCC:   5
 BETA  OCC:   5
 
 ***HARTREE-FOCK ENERGY IN STEP  10 IS        -56.1478009151438258 [AU]
 
 Step comparison  Energy Drift [au]  DIIS error drift  Gradient drift
        9            4.9738E-12         2.4718E-08       2.1509E-06
 ======================================================================
 ITERATION STEP  11
 CPU time [min]:     1.431                   Wall time [min]:     0.032
 

 SCF control                  : diis
 Damping factor/level shift   : 0.000/0.000
 DIIS [start/end/frequency]   :   2 /200 /  1

 Constructing Fock-matrix...
 
 Pipek-Mezey localization...
 Step  Convergence
   1   0.045261425715
   2   0.046338766126
   3   0.000027248245
   4   0.000000000424
   5   0.000000000001
 CPU time [min]:     1.454                   Wall time [min]:     0.032
 
 Constructing local fitting domains...
 Local fitting domains are unchanged.
 
 First step of Coulomb + first step of exchange...
 Exchange contribution is evaluated for MOs 1 to 5.
   1% done.
  14% done.
  25% done.
  37% done.
  49% done.
  60% done.
  72% done.
  83% done.
 100% done.
 Fitting and assembly step of exchange...
 CPU time [min]:     1.526                   Wall time [min]:     0.033
 
 Second step of Coulomb...
   1% done.
  14% done.
  25% done.
  37% done.
  49% done.
  60% done.
  72% done.
  83% done.
 100% done.
 CPU time [min]:     1.551                   Wall time [min]:     0.034
 
 Gradient norm:      4.3706E-08
 DIIS is running in this iteration step.
 RMS of [F,P]:                                         0.00000000065748
 RMS of difference density:                            0.00000000128729
 Gap [au]:  0.52340444
 ALPHA OCC:   5
 BETA  OCC:   5
 
 ***HARTREE-FOCK ENERGY IN STEP  11 IS        -56.1478009151439821 [AU]
 
 Step comparison  Energy Drift [au]  DIIS error drift  Gradient drift
       10            1.5632E-13         6.6577E-09       5.0679E-07
 ======================================================================
 ITERATION STEP  12
 CPU time [min]:     1.566                   Wall time [min]:     0.034
 

 SCF control                  : diis
 Damping factor/level shift   : 0.000/0.000
 DIIS [start/end/frequency]   :   2 /200 /  1

 Constructing Fock-matrix...
 
 Pipek-Mezey localization...
 Step  Convergence
   1   0.045447531280
   2   0.044358233164
   3   0.000029715911
   4   0.000000090013
   5   0.000000000516
   6   0.000000000002
   7   0.000000000000
 CPU time [min]:     1.590                   Wall time [min]:     0.034
 
 Constructing local fitting domains...
 Local fitting domains are unchanged.
 
 First step of Coulomb + first step of exchange...
 Exchange contribution is evaluated for MOs 1 to 5.
   1% done.
  14% done.
  25% done.
  37% done.
  49% done.
  60% done.
  72% done.
  83% done.
 100% done.
 Fitting and assembly step of exchange...
 CPU time [min]:     1.662                   Wall time [min]:     0.035
 
 Second step of Coulomb...
   1% done.
  14% done.
  25% done.
  37% done.
  49% done.
  60% done.
  72% done.
  83% done.
 100% done.
 CPU time [min]:     1.687                   Wall time [min]:     0.036
 
 Gradient norm:      3.3336E-09
 DIIS is running in this iteration step.
 RMS of [F,P]:                                         0.00000000005829
 RMS of difference density:                            0.00000000007943
 Gap [au]:  0.52340444
 ALPHA OCC:   5
 BETA  OCC:   5
 
 ***HARTREE-FOCK ENERGY IN STEP  12 IS        -56.1478009151440247 [AU]
 
 Step comparison  Energy Drift [au]  DIIS error drift  Gradient drift
       11            4.2633E-14         5.9919E-10       4.0373E-08
 
 The SCF iteration has converged.
 An extra iteration will be performed to calculate accurate SCF energy.
 
 ======================================================================
 ITERATION STEP  13
 CPU time [min]:     1.703                   Wall time [min]:     0.036
 

 SCF control                  : diis
 Damping factor/level shift   : 0.000/0.000
 DIIS [start/end/frequency]   :   2 /200 /  1

 Constructing Fock-matrix...
 
 Pipek-Mezey localization...
 Step  Convergence
   1   0.045261393427
   2   0.044358308949
   3   0.000032936151
   4   0.000000103601
   5   0.000000000223
   6   0.000000000000
 CPU time [min]:     1.726                   Wall time [min]:     0.037
 
 Constructing local fitting domains...
 Maximum number of atoms in fitting domains:   12
 Average number of atoms in fitting domains:    8.8
 
 First step of Coulomb + first step of exchange...
 Exchange contribution is evaluated for MOs 1 to 5.
   1% done.
  14% done.
  25% done.
  37% done.
  49% done.
  60% done.
  72% done.
  83% done.
 100% done.
 Fitting and assembly step of exchange...
 CPU time [min]:     1.815                   Wall time [min]:     0.038
 
 Second step of Coulomb...
   1% done.
  14% done.
  25% done.
  37% done.
  49% done.
  60% done.
  72% done.
  83% done.
 100% done.
 CPU time [min]:     1.840                   Wall time [min]:     0.038
 
 Gradient norm:      1.0386E-06
 RMS of [F,P]:                                         0.00000003046413
 RMS of difference density:                            0.00000003898133
 Gap [au]:  0.52339831
 ALPHA OCC:   5
 BETA  OCC:   5
 
 ***HARTREE-FOCK ENERGY IN STEP  13 IS        -56.1478010695153600 [AU]
 
 Step comparison  Energy Drift [au]  DIIS error drift  Gradient drift
       12            1.5437E-07        -3.0406E-08      -1.0353E-06
 Warning! The DIIS error goes uphill (with respect to previous step).
 Warning! The DIIS error goes uphill (with respect to step  12 ).
 Warning! The gradient goes uphill (with respect to previous step).
 Warning! The gradient goes uphill (with respect to step  12 ).
 ======================================================================
 
 SUCCESS...
 THE SCF ITERATION HAS CONVERGED!
 
                   A   
 FINAL ALPHA OCC:   5
 FINAL BETA  OCC:   5
 
 ***FINAL HARTREE-FOCK ENERGY:        -56.1478010695153600 [AU]
 
 Orbital energies [au]:
      Irrep         Alpha          Beta
    1   A        -15.539304     -15.539304
    2   A         -1.111316      -1.111316
    3   A         -0.615223      -0.615223
    4   A         -0.615185      -0.615185
    5   A         -0.418651      -0.418651
 
    6   A          0.104747       0.104747
    7   A          0.120952       0.120952
    8   A          0.187186       0.187186
    9   A          0.220891       0.220891
   10   A          0.241512       0.241512
   11   A          0.245646       0.245646
   12   A          0.253653       0.253653
   13   A          0.277773       0.277773
   14   A          0.329238       0.329238
   15   A          0.439892       0.439892
   16   A          0.464411       0.464411
   17   A          0.581395       0.581395
   18   A          0.599249       0.599249
   19   A          0.710993       0.710993
   20   A          0.711883       0.711883
   21   A          0.713483       0.713483
   22   A          0.723757       0.723757
   23   A          0.735823       0.735823
   24   A          0.787491       0.787491
   25   A          0.893584       0.893584
   26   A          0.990335       0.990335
   27   A          1.094745       1.094745
   28   A          1.111605       1.111605
   29   A          1.159824       1.159824
   30   A          1.459196       1.459196
   31   A          1.460218       1.460218
   32   A          1.561135       1.561135
   33   A          1.571337       1.571337
   34   A          1.574779       1.574779
   35   A          1.578670       1.578670
   36   A          1.593482       1.593482
   37   A          1.625731       1.625731
   38   A          1.759437       1.759437
   39   A          1.765663       1.765663
   40   A          1.871980       1.871980
   41   A          1.961513       1.961513
   42   A          1.961985       1.961985
   43   A          1.962099       1.962099
   44   A          1.963622       1.963622
   45   A          1.969389       1.969389
   46   A          2.074430       2.074430
   47   A          2.074742       2.074742
   48   A          2.270370       2.270370
   49   A          2.270968       2.270968
   50   A          2.414560       2.414560
   51   A          2.424725       2.424725
   52   A          2.440687       2.440687
   53   A          2.446739       2.446739
   54   A          2.463071       2.463071
   55   A          2.464319       2.464319
   56   A          2.466430       2.466430
   57   A          2.474268       2.474268
   58   A          2.483797       2.483797
   59   A          2.485015       2.485015
   60   A          2.485997       2.485997
   61   A          2.503983       2.503983
   62   A          2.749464       2.749464
   63   A          3.025819       3.025819
   64   A          3.038302       3.038302
   65   A          3.155716       3.155716
   66   A          3.158038       3.158038
   67   A          3.264417       3.264417
   68   A          3.693571       3.693571
   69   A          3.701351       3.701351
   70   A          4.011567       4.011567
   71   A          4.011904       4.011904
   72   A          4.031165       4.031165
   73   A          4.032119       4.032119
   74   A          4.032516       4.032516
   75   A          4.046919       4.046919
   76   A          4.151952       4.151952
   77   A          4.152370       4.152370
   78   A          4.152449       4.152449
   79   A          4.152498       4.152498
   80   A          4.885279       4.885279
   81   A          4.892650       4.892650
   82   A          6.044174       6.044174
   83   A          6.044636       6.044636
   84   A          6.044914       6.044914
   85   A          6.045387       6.045387
   86   A         26.591282      26.591282
   87   A         26.599106      26.599106
 
 RETURNING FROM SCF ALGORITHM
 ======================================================================

 ************************ 2026-02-26 23:37:12 *************************
 Executing integ...

 Allocation of 46.0 Gbytes of memory...
 
 
 Number of atoms:                 12
 Charge:                           0
 Number of electrons:             10
 Number of core electrons:         2
 Spin multiplicity:                1
 
                 Cartesian coordinates [bohr]      Atomic mass [AMU]  Z
   1  N     6.82182577   12.56870435    7.72099687     0.000000       0
   2  H     8.36625160   11.90420748    8.68871146     0.000000       0
   3  H     7.48639849   13.53638789    6.17641118     0.000000       0
   4  H     5.85401804   11.02435588    7.05654762     0.000000       0
   5  N     6.82182577   12.56870435   17.41623676     0.000000       0
   6  H     8.36625160   11.90420748   18.38395135     0.000000       0
   7  H     7.48639849   13.53638789   15.87165107     0.000000       0
   8  H     5.85401804   11.02435588   16.75178750     0.000000       0
   9  N    12.56867272    7.72109067    6.82187243    14.003074       7
  10  H    13.53645296    6.17673805    7.48629888     1.007825       1
  11  H    11.02421872    7.05658759    5.85414160     1.007825       1
  12  H    11.90408933    8.68876012    8.36643752     1.007825       1
 
 This molecule is an asymmetric top.
 
 Point group: C1  
 Computational point group: C1  
 
 Cartesian coordinates in standard orientation [bohr]
   1  N     4.24095014    4.62637682   -0.09314190
   2  H     3.84251283    2.78651597   -0.56158455
   3  H     3.21588246    5.75730547   -1.29066013
   4  H     3.55840948    4.92214906    1.69845344
   5  N    11.27492263   -2.04345257    0.09201581
   6  H    10.87648532   -3.88331342   -0.37642684
   7  H    10.24985494   -0.91252392   -1.10550241
   8  H    10.59238197   -1.74768033    1.88361115
   9  N    -1.58461171   -0.21063564   -0.10628348
  10  H    -2.30423826   -1.91953537    0.46370376
  11  H    -1.78949222    1.02120125    1.37830648
  12  H     0.31903076   -0.45607129   -0.38849484
 
 Nuclear repulsion energy [au]:         11.785806804837
 
 
 Basis set information:
 
 Maximum angular momentum: g
 Maximum number of contracted Gaussians:   11
 Maximum number of primitive Gaussians:    14
 Spherical harmonic GTOs are used.
 
 
 Conventional basis set:
 
   1  N  aug-cc-pvdz [ 10s 5p 2d | 4s 3p 2d ]
   2  H  aug-cc-pvdz [ 5s 2p | 3s 2p ]
   3  H  aug-cc-pvdz [ 5s 2p | 3s 2p ]
   4  H  aug-cc-pvdz [ 5s 2p | 3s 2p ]
   5  N  aug-cc-pvdz [ 10s 5p 2d | 4s 3p 2d ]
   6  H  aug-cc-pvdz [ 5s 2p | 3s 2p ]
   7  H  aug-cc-pvdz [ 5s 2p | 3s 2p ]
   8  H  aug-cc-pvdz [ 5s 2p | 3s 2p ]
   9  N  aug-cc-pvdz [ 10s 5p 2d | 4s 3p 2d ]
  10  H  aug-cc-pvdz [ 5s 2p | 3s 2p ]
  11  H  aug-cc-pvdz [ 5s 2p | 3s 2p ]
  12  H  aug-cc-pvdz [ 5s 2p | 3s 2p ]
 
 Basis functions:
            1             2             3             4             5             6             7             8             9            10
    0    1N1s          1N2s          1N3s          1N4s          1N1pz         1N1py         1N1px         1N2pz         1N2py         1N2px     
    1    1N3pz         1N3py         1N3px         1N1d-2        1N1d-1        1N1d0         1N1d+1        1N1d+2        1N2d-2        1N2d-1    
    2    1N2d0         1N2d+1        1N2d+2        2H1s          2H2s          2H3s          2H1pz         2H1py         2H1px         2H2pz     
    3    2H2py         2H2px         3H1s          3H2s          3H3s          3H1pz         3H1py         3H1px         3H2pz         3H2py     
    4    3H2px         4H1s          4H2s          4H3s          4H1pz         4H1py         4H1px         4H2pz         4H2py         4H2px     
    5    5N1s          5N2s          5N3s          5N4s          5N1pz         5N1py         5N1px         5N2pz         5N2py         5N2px     
    6    5N3pz         5N3py         5N3px         5N1d-2        5N1d-1        5N1d0         5N1d+1        5N1d+2        5N2d-2        5N2d-1    
    7    5N2d0         5N2d+1        5N2d+2        6H1s          6H2s          6H3s          6H1pz         6H1py         6H1px         6H2pz     
    8    6H2py         6H2px         7H1s          7H2s          7H3s          7H1pz         7H1py         7H1px         7H2pz         7H2py     
    9    7H2px         8H1s          8H2s          8H3s          8H1pz         8H1py         8H1px         8H2pz         8H2py         8H2px     
   10    9N1s          9N2s          9N3s          9N4s          9N1pz         9N1py         9N1px         9N2pz         9N2py         9N2px     
   11    9N3pz         9N3py         9N3px         9N1d-2        9N1d-1        9N1d0         9N1d+1        9N1d+2        9N2d-2        9N2d-1    
   12    9N2d0         9N2d+1        9N2d+2       10H1s         10H2s         10H3s         10H1pz        10H1py        10H1px        10H2pz     
   13   10H2py        10H2px        11H1s         11H2s         11H3s         11H1pz        11H1py        11H1px        11H2pz        11H2py     
   14   11H2px        12H1s         12H2s         12H3s         12H1pz        12H1py        12H1px        12H2pz        12H2py        12H2px     
 
 Maximum number of basis functions per shell:   10
 Total number of basis functions:    150
 
 
 Fitting basis set for the SCF calculation:
 
   1  N  aug-cc-pvdz-ri-jk [ 11s 8p 6d 3f | 11s 8p 6d 3f ]
   2  H  aug-cc-pvdz-ri-jk [ 5s 4p 3d | 5s 4p 3d ]
   3  H  aug-cc-pvdz-ri-jk [ 5s 4p 3d | 5s 4p 3d ]
   4  H  aug-cc-pvdz-ri-jk [ 5s 4p 3d | 5s 4p 3d ]
   5  N  aug-cc-pvdz-ri-jk [ 11s 8p 6d 3f | 11s 8p 6d 3f ]
   6  H  aug-cc-pvdz-ri-jk [ 5s 4p 3d | 5s 4p 3d ]
   7  H  aug-cc-pvdz-ri-jk [ 5s 4p 3d | 5s 4p 3d ]
   8  H  aug-cc-pvdz-ri-jk [ 5s 4p 3d | 5s 4p 3d ]
   9  N  aug-cc-pvdz-ri-jk [ 11s 8p 6d 3f | 11s 8p 6d 3f ]
  10  H  aug-cc-pvdz-ri-jk [ 5s 4p 3d | 5s 4p 3d ]
  11  H  aug-cc-pvdz-ri-jk [ 5s 4p 3d | 5s 4p 3d ]
  12  H  aug-cc-pvdz-ri-jk [ 5s 4p 3d | 5s 4p 3d ]
 
 Basis functions:
            1             2             3             4             5             6             7             8             9            10
    0    1N1s          1N2s          1N3s          1N4s          1N5s          1N6s          1N7s          1N8s          1N9s          1N10s     
    1    1N11s         1N1pz         1N1py         1N1px         1N2pz         1N2py         1N2px         1N3pz         1N3py         1N3px     
    2    1N4pz         1N4py         1N4px         1N5pz         1N5py         1N5px         1N6pz         1N6py         1N6px         1N7pz     
    3    1N7py         1N7px         1N8pz         1N8py         1N8px         1N1d-2        1N1d-1        1N1d0         1N1d+1        1N1d+2    
    4    1N2d-2        1N2d-1        1N2d0         1N2d+1        1N2d+2        1N3d-2        1N3d-1        1N3d0         1N3d+1        1N3d+2    
    5    1N4d-2        1N4d-1        1N4d0         1N4d+1        1N4d+2        1N5d-2        1N5d-1        1N5d0         1N5d+1        1N5d+2    
    6    1N6d-2        1N6d-1        1N6d0         1N6d+1        1N6d+2        1N1f-3        1N1f-2        1N1f-1        1N1f0         1N1f+1    
    7    1N1f+2        1N1f+3        1N2f-3        1N2f-2        1N2f-1        1N2f0         1N2f+1        1N2f+2        1N2f+3        1N3f-3    
    8    1N3f-2        1N3f-1        1N3f0         1N3f+1        1N3f+2        1N3f+3        2H1s          2H2s          2H3s          2H4s      
    9    2H5s          2H1pz         2H1py         2H1px         2H2pz         2H2py         2H2px         2H3pz         2H3py         2H3px     
   10    2H4pz         2H4py         2H4px         2H1d-2        2H1d-1        2H1d0         2H1d+1        2H1d+2        2H2d-2        2H2d-1    
   11    2H2d0         2H2d+1        2H2d+2        2H3d-2        2H3d-1        2H3d0         2H3d+1        2H3d+2        3H1s          3H2s      
   12    3H3s          3H4s          3H5s          3H1pz         3H1py         3H1px         3H2pz         3H2py         3H2px         3H3pz     
   13    3H3py         3H3px         3H4pz         3H4py         3H4px         3H1d-2        3H1d-1        3H1d0         3H1d+1        3H1d+2    
   14    3H2d-2        3H2d-1        3H2d0         3H2d+1        3H2d+2        3H3d-2        3H3d-1        3H3d0         3H3d+1        3H3d+2    
   15    4H1s          4H2s          4H3s          4H4s          4H5s          4H1pz         4H1py         4H1px         4H2pz         4H2py     
   16    4H2px         4H3pz         4H3py         4H3px         4H4pz         4H4py         4H4px         4H1d-2        4H1d-1        4H1d0     
   17    4H1d+1        4H1d+2        4H2d-2        4H2d-1        4H2d0         4H2d+1        4H2d+2        4H3d-2        4H3d-1        4H3d0     
   18    4H3d+1        4H3d+2        5N1s          5N2s          5N3s          5N4s          5N5s          5N6s          5N7s          5N8s      
   19    5N9s          5N10s         5N11s         5N1pz         5N1py         5N1px         5N2pz         5N2py         5N2px         5N3pz     
   20    5N3py         5N3px         5N4pz         5N4py         5N4px         5N5pz         5N5py         5N5px         5N6pz         5N6py     
   21    5N6px         5N7pz         5N7py         5N7px         5N8pz         5N8py         5N8px         5N1d-2        5N1d-1        5N1d0     
   22    5N1d+1        5N1d+2        5N2d-2        5N2d-1        5N2d0         5N2d+1        5N2d+2        5N3d-2        5N3d-1        5N3d0     
   23    5N3d+1        5N3d+2        5N4d-2        5N4d-1        5N4d0         5N4d+1        5N4d+2        5N5d-2        5N5d-1        5N5d0     
   24    5N5d+1        5N5d+2        5N6d-2        5N6d-1        5N6d0         5N6d+1        5N6d+2        5N1f-3        5N1f-2        5N1f-1    
   25    5N1f0         5N1f+1        5N1f+2        5N1f+3        5N2f-3        5N2f-2        5N2f-1        5N2f0         5N2f+1        5N2f+2    
   26    5N2f+3        5N3f-3        5N3f-2        5N3f-1        5N3f0         5N3f+1        5N3f+2        5N3f+3        6H1s          6H2s      
   27    6H3s          6H4s          6H5s          6H1pz         6H1py         6H1px         6H2pz         6H2py         6H2px         6H3pz     
   28    6H3py         6H3px         6H4pz         6H4py         6H4px         6H1d-2        6H1d-1        6H1d0         6H1d+1        6H1d+2    
   29    6H2d-2        6H2d-1        6H2d0         6H2d+1        6H2d+2        6H3d-2        6H3d-1        6H3d0         6H3d+1        6H3d+2    
   30    7H1s          7H2s          7H3s          7H4s          7H5s          7H1pz         7H1py         7H1px         7H2pz         7H2py     
   31    7H2px         7H3pz         7H3py         7H3px         7H4pz         7H4py         7H4px         7H1d-2        7H1d-1        7H1d0     
   32    7H1d+1        7H1d+2        7H2d-2        7H2d-1        7H2d0         7H2d+1        7H2d+2        7H3d-2        7H3d-1        7H3d0     
   33    7H3d+1        7H3d+2        8H1s          8H2s          8H3s          8H4s          8H5s          8H1pz         8H1py         8H1px     
   34    8H2pz         8H2py         8H2px         8H3pz         8H3py         8H3px         8H4pz         8H4py         8H4px         8H1d-2    
   35    8H1d-1        8H1d0         8H1d+1        8H1d+2        8H2d-2        8H2d-1        8H2d0         8H2d+1        8H2d+2        8H3d-2    
   36    8H3d-1        8H3d0         8H3d+1        8H3d+2        9N1s          9N2s          9N3s          9N4s          9N5s          9N6s      
   37    9N7s          9N8s          9N9s          9N10s         9N11s         9N1pz         9N1py         9N1px         9N2pz         9N2py     
   38    9N2px         9N3pz         9N3py         9N3px         9N4pz         9N4py         9N4px         9N5pz         9N5py         9N5px     
   39    9N6pz         9N6py         9N6px         9N7pz         9N7py         9N7px         9N8pz         9N8py         9N8px         9N1d-2    
   40    9N1d-1        9N1d0         9N1d+1        9N1d+2        9N2d-2        9N2d-1        9N2d0         9N2d+1        9N2d+2        9N3d-2    
   41    9N3d-1        9N3d0         9N3d+1        9N3d+2        9N4d-2        9N4d-1        9N4d0         9N4d+1        9N4d+2        9N5d-2    
   42    9N5d-1        9N5d0         9N5d+1        9N5d+2        9N6d-2        9N6d-1        9N6d0         9N6d+1        9N6d+2        9N1f-3    
   43    9N1f-2        9N1f-1        9N1f0         9N1f+1        9N1f+2        9N1f+3        9N2f-3        9N2f-2        9N2f-1        9N2f0     
   44    9N2f+1        9N2f+2        9N2f+3        9N3f-3        9N3f-2        9N3f-1        9N3f0         9N3f+1        9N3f+2        9N3f+3    
   45   10H1s         10H2s         10H3s         10H4s         10H5s         10H1pz        10H1py        10H1px        10H2pz        10H2py     
   46   10H2px        10H3pz        10H3py        10H3px        10H4pz        10H4py        10H4px        10H1d-2       10H1d-1       10H1d0     
   47   10H1d+1       10H1d+2       10H2d-2       10H2d-1       10H2d0        10H2d+1       10H2d+2       10H3d-2       10H3d-1       10H3d0     
   48   10H3d+1       10H3d+2       11H1s         11H2s         11H3s         11H4s         11H5s         11H1pz        11H1py        11H1px     
   49   11H2pz        11H2py        11H2px        11H3pz        11H3py        11H3px        11H4pz        11H4py        11H4px        11H1d-2    
   50   11H1d-1       11H1d0        11H1d+1       11H1d+2       11H2d-2       11H2d-1       11H2d0        11H2d+1       11H2d+2       11H3d-2    
   51   11H3d-1       11H3d0        11H3d+1       11H3d+2       12H1s         12H2s         12H3s         12H4s         12H5s         12H1pz     
   52   12H1py        12H1px        12H2pz        12H2py        12H2px        12H3pz        12H3py        12H3px        12H4pz        12H4py     
   53   12H4px        12H1d-2       12H1d-1       12H1d0        12H1d+1       12H1d+2       12H2d-2       12H2d-1       12H2d0        12H2d+1    
   54   12H2d+2       12H3d-2       12H3d-1       12H3d0        12H3d+1       12H3d+2    
 
 Maximum number of basis functions per shell:   30
 Total number of basis functions:    546
 
 
 Fitting basis set for the correlation calculation:
 
   1  N  aug-cc-pvdz-ri [ 8s 6p 5d 3f | 8s 6p 5d 3f ]
   2  H  aug-cc-pvdz-ri [ 4s 3p 2d | 4s 3p 2d ]
   3  H  aug-cc-pvdz-ri [ 4s 3p 2d | 4s 3p 2d ]
   4  H  aug-cc-pvdz-ri [ 4s 3p 2d | 4s 3p 2d ]
   5  N  aug-cc-pvdz-ri [ 8s 6p 5d 3f | 8s 6p 5d 3f ]
   6  H  aug-cc-pvdz-ri [ 4s 3p 2d | 4s 3p 2d ]
   7  H  aug-cc-pvdz-ri [ 4s 3p 2d | 4s 3p 2d ]
   8  H  aug-cc-pvdz-ri [ 4s 3p 2d | 4s 3p 2d ]
   9  N  aug-cc-pvdz-ri [ 8s 6p 5d 3f | 8s 6p 5d 3f ]
  10  H  aug-cc-pvdz-ri [ 4s 3p 2d | 4s 3p 2d ]
  11  H  aug-cc-pvdz-ri [ 4s 3p 2d | 4s 3p 2d ]
  12  H  aug-cc-pvdz-ri [ 4s 3p 2d | 4s 3p 2d ]
 
 Basis functions:
            1             2             3             4             5             6             7             8             9            10
    0    1N1s          1N2s          1N3s          1N4s          1N5s          1N6s          1N7s          1N8s          1N1pz         1N1py     
    1    1N1px         1N2pz         1N2py         1N2px         1N3pz         1N3py         1N3px         1N4pz         1N4py         1N4px     
    2    1N5pz         1N5py         1N5px         1N6pz         1N6py         1N6px         1N1d-2        1N1d-1        1N1d0         1N1d+1    
    3    1N1d+2        1N2d-2        1N2d-1        1N2d0         1N2d+1        1N2d+2        1N3d-2        1N3d-1        1N3d0         1N3d+1    
    4    1N3d+2        1N4d-2        1N4d-1        1N4d0         1N4d+1        1N4d+2        1N5d-2        1N5d-1        1N5d0         1N5d+1    
    5    1N5d+2        1N1f-3        1N1f-2        1N1f-1        1N1f0         1N1f+1        1N1f+2        1N1f+3        1N2f-3        1N2f-2    
    6    1N2f-1        1N2f0         1N2f+1        1N2f+2        1N2f+3        1N3f-3        1N3f-2        1N3f-1        1N3f0         1N3f+1    
    7    1N3f+2        1N3f+3        2H1s          2H2s          2H3s          2H4s          2H1pz         2H1py         2H1px         2H2pz     
    8    2H2py         2H2px         2H3pz         2H3py         2H3px         2H1d-2        2H1d-1        2H1d0         2H1d+1        2H1d+2    
    9    2H2d-2        2H2d-1        2H2d0         2H2d+1        2H2d+2        3H1s          3H2s          3H3s          3H4s          3H1pz     
   10    3H1py         3H1px         3H2pz         3H2py         3H2px         3H3pz         3H3py         3H3px         3H1d-2        3H1d-1    
   11    3H1d0         3H1d+1        3H1d+2        3H2d-2        3H2d-1        3H2d0         3H2d+1        3H2d+2        4H1s          4H2s      
   12    4H3s          4H4s          4H1pz         4H1py         4H1px         4H2pz         4H2py         4H2px         4H3pz         4H3py     
   13    4H3px         4H1d-2        4H1d-1        4H1d0         4H1d+1        4H1d+2        4H2d-2        4H2d-1        4H2d0         4H2d+1    
   14    4H2d+2        5N1s          5N2s          5N3s          5N4s          5N5s          5N6s          5N7s          5N8s          5N1pz     
   15    5N1py         5N1px         5N2pz         5N2py         5N2px         5N3pz         5N3py         5N3px         5N4pz         5N4py     
   16    5N4px         5N5pz         5N5py         5N5px         5N6pz         5N6py         5N6px         5N1d-2        5N1d-1        5N1d0     
   17    5N1d+1        5N1d+2        5N2d-2        5N2d-1        5N2d0         5N2d+1        5N2d+2        5N3d-2        5N3d-1        5N3d0     
   18    5N3d+1        5N3d+2        5N4d-2        5N4d-1        5N4d0         5N4d+1        5N4d+2        5N5d-2        5N5d-1        5N5d0     
   19    5N5d+1        5N5d+2        5N1f-3        5N1f-2        5N1f-1        5N1f0         5N1f+1        5N1f+2        5N1f+3        5N2f-3    
   20    5N2f-2        5N2f-1        5N2f0         5N2f+1        5N2f+2        5N2f+3        5N3f-3        5N3f-2        5N3f-1        5N3f0     
   21    5N3f+1        5N3f+2        5N3f+3        6H1s          6H2s          6H3s          6H4s          6H1pz         6H1py         6H1px     
   22    6H2pz         6H2py         6H2px         6H3pz         6H3py         6H3px         6H1d-2        6H1d-1        6H1d0         6H1d+1    
   23    6H1d+2        6H2d-2        6H2d-1        6H2d0         6H2d+1        6H2d+2        7H1s          7H2s          7H3s          7H4s      
   24    7H1pz         7H1py         7H1px         7H2pz         7H2py         7H2px         7H3pz         7H3py         7H3px         7H1d-2    
   25    7H1d-1        7H1d0         7H1d+1        7H1d+2        7H2d-2        7H2d-1        7H2d0         7H2d+1        7H2d+2        8H1s      
   26    8H2s          8H3s          8H4s          8H1pz         8H1py         8H1px         8H2pz         8H2py         8H2px         8H3pz     
   27    8H3py         8H3px         8H1d-2        8H1d-1        8H1d0         8H1d+1        8H1d+2        8H2d-2        8H2d-1        8H2d0     
   28    8H2d+1        8H2d+2        9N1s          9N2s          9N3s          9N4s          9N5s          9N6s          9N7s          9N8s      
   29    9N1pz         9N1py         9N1px         9N2pz         9N2py         9N2px         9N3pz         9N3py         9N3px         9N4pz     
   30    9N4py         9N4px         9N5pz         9N5py         9N5px         9N6pz         9N6py         9N6px         9N1d-2        9N1d-1    
   31    9N1d0         9N1d+1        9N1d+2        9N2d-2        9N2d-1        9N2d0         9N2d+1        9N2d+2        9N3d-2        9N3d-1    
   32    9N3d0         9N3d+1        9N3d+2        9N4d-2        9N4d-1        9N4d0         9N4d+1        9N4d+2        9N5d-2        9N5d-1    
   33    9N5d0         9N5d+1        9N5d+2        9N1f-3        9N1f-2        9N1f-1        9N1f0         9N1f+1        9N1f+2        9N1f+3    
   34    9N2f-3        9N2f-2        9N2f-1        9N2f0         9N2f+1        9N2f+2        9N2f+3        9N3f-3        9N3f-2        9N3f-1    
   35    9N3f0         9N3f+1        9N3f+2        9N3f+3       10H1s         10H2s         10H3s         10H4s         10H1pz        10H1py     
   36   10H1px        10H2pz        10H2py        10H2px        10H3pz        10H3py        10H3px        10H1d-2       10H1d-1       10H1d0     
   37   10H1d+1       10H1d+2       10H2d-2       10H2d-1       10H2d0        10H2d+1       10H2d+2       11H1s         11H2s         11H3s      
   38   11H4s         11H1pz        11H1py        11H1px        11H2pz        11H2py        11H2px        11H3pz        11H3py        11H3px     
   39   11H1d-2       11H1d-1       11H1d0        11H1d+1       11H1d+2       11H2d-2       11H2d-1       11H2d0        11H2d+1       11H2d+2    
   40   12H1s         12H2s         12H3s         12H4s         12H1pz        12H1py        12H1px        12H2pz        12H2py        12H2px     
   41   12H3pz        12H3py        12H3px        12H1d-2       12H1d-1       12H1d0        12H1d+1       12H1d+2       12H2d-2       12H2d-1    
   42   12H2d0        12H2d+1       12H2d+2    
 
 Maximum number of basis functions per shell:   30
 Total number of basis functions:    423
 
 
 Old basis set for SCF restart
 
   1  N  def2-svp [ 7s 4p 1d | 3s 2p 1d ]
   2  H  def2-svp [ 4s 1p | 2s 1p ]
   3  H  def2-svp [ 4s 1p | 2s 1p ]
   4  H  def2-svp [ 4s 1p | 2s 1p ]
   5  N  def2-svp [ 7s 4p 1d | 3s 2p 1d ]
   6  H  def2-svp [ 4s 1p | 2s 1p ]
   7  H  def2-svp [ 4s 1p | 2s 1p ]
   8  H  def2-svp [ 4s 1p | 2s 1p ]
   9  N  def2-svp [ 7s 4p 1d | 3s 2p 1d ]
  10  H  def2-svp [ 4s 1p | 2s 1p ]
  11  H  def2-svp [ 4s 1p | 2s 1p ]
  12  H  def2-svp [ 4s 1p | 2s 1p ]
 
 Basis functions:
            1             2             3             4             5             6             7             8             9            10
    0    1N1s          1N2s          1N3s          1N1pz         1N1py         1N1px         1N2pz         1N2py         1N2px         1N1d-2    
    1    1N1d-1        1N1d0         1N1d+1        1N1d+2        2H1s          2H2s          2H1pz         2H1py         2H1px         3H1s      
    2    3H2s          3H1pz         3H1py         3H1px         4H1s          4H2s          4H1pz         4H1py         4H1px         5N1s      
    3    5N2s          5N3s          5N1pz         5N1py         5N1px         5N2pz         5N2py         5N2px         5N1d-2        5N1d-1    
    4    5N1d0         5N1d+1        5N1d+2        6H1s          6H2s          6H1pz         6H1py         6H1px         7H1s          7H2s      
    5    7H1pz         7H1py         7H1px         8H1s          8H2s          8H1pz         8H1py         8H1px         9N1s          9N2s      
    6    9N3s          9N1pz         9N1py         9N1px         9N2pz         9N2py         9N2px         9N1d-2        9N1d-1        9N1d0     
    7    9N1d+1        9N1d+2       10H1s         10H2s         10H1pz        10H1py        10H1px        11H1s         11H2s         11H1pz     
    8   11H1py        11H1px        12H1s         12H2s         12H1pz        12H1py        12H1px     
 
 Maximum number of basis functions per shell:   30
 Total number of basis functions:     87
 
 
 Character table for point group C1:
 
          E  
    A     1
 
 Number of basis functions per irrep:
    A     150
 
 
 Calculation of overlap integrals...
 CPU time [min]:     0.182                   Wall time [min]:     0.005
 
 Calculation of the square root of the overlap matrix...
 Minimum eigenvalue of the overlap matrix: 0.110020E-02
 CPU time [min]:     0.200                   Wall time [min]:     0.006
 
 Calculation of kinetic energy integrals...
 CPU time [min]:     0.202                   Wall time [min]:     0.006
 Calculation of dipole moment integrals...
 CPU time [min]:     0.203                   Wall time [min]:     0.006
 Calculation of nuclear attraction integrals...
 CPU time [min]:     0.205                   Wall time [min]:     0.006
 Calculation of overlap integrals...
 CPU time [min]:     0.206                   Wall time [min]:     0.006
 
 Calculation of prescreening integrals...
 CPU time [min]:     0.273                   Wall time [min]:     0.007
 
 Calculation of two-center Coulomb integrals...
   1% done.
  13% done.
  24% done.
  37% done.
  53% done.
  68% done.
  80% done.
  95% done.
 100% done.
 CPU time [min]:     0.286                   Wall time [min]:     0.007
 
 Cholesky decomposition of the two-center matrix...
 Reciprocal of the condition number:  0.127717E-04
 CPU time [min]:     0.301                   Wall time [min]:     0.007
 

 ************************ 2026-02-26 23:37:13 *************************
 Executing scf...

 @scfsetup: integrals calculated directly
            mrcc/integ direct run
 @scfsetup: calculating on full matrices
            not using symmetry adapted basis
 @scfsetup: diis switched on
 @scfsetup: number of steps to extrapolate from  10
 @scfsetup: tolerance in energy deviation    0.100000E-07
            tolerance in density deviation    0.100000E-08
 @scfsetup: maximum number of iterations: 200
 @scfsetup: restricted closed shell hf calc
 @scfsetup: restarting scf from SCFDENSITIES file
 @scfsetup: occupation set:
            from initial orbitals
 @scfsetup: Parameter-set for SCF acceleration: normal
 @scfsetup: diis runs from iteration:   2
 @scfsetup: diis runs to iteration: 200
 @scfsetup: diis runs in every iteration
 @scfsetup: diiswatch is disabled                   
 @scfsetup: diis dtol criteria to switch on:      0.0000E+00
           (or the iteration number below is reached)
 @scfsetup: static damping scheme
            iteration step criteria to turn damping off: 3
 @scfsetup: dynamic level shifting
            tolarance in HOMO-LUMO gap:  0.200
            tolarance in density deviation:     0.0000E+00
            iteration step criteria to turn level shifting off: 8
 Allocation of 46.0 Gbytes of memory...
 ======================================================================
 ITERATION STEP   1
 CPU time [min]:     0.042                   Wall time [min]:     0.009
 

 SCF control                  : initial
 Damping factor/level shift   : 0.000/0.200
 DIIS [start/end/frequency]   :   2 /200 /  1

 Constructing Fock-matrix...
 Inverse square root: The matrix is not positive definite!
 
 Pipek-Mezey localization...
 Step  Convergence
   1   0.936319187831
   2   0.255463278951
   3   0.018297398089
   4   0.000812312919
   5   0.000056654165
   6   0.000005623754
   7   0.000000692834
   8   0.000000093266
   9   0.000000012575
  10   0.000000001525
 CPU time [min]:     0.071                   Wall time [min]:     0.009
 
 Constructing local fitting domains...
 Maximum number of atoms in fitting domains:    9
 Average number of atoms in fitting domains:    8.4
 
 First step of Coulomb + first step of exchange...
 Exchange contribution is evaluated for MOs 1 to 5.
   1% done.
  13% done.
  24% done.
  37% done.
  48% done.
  67% done.
  78% done.
  92% done.
 100% done.
 Fitting and assembly step of exchange...
 CPU time [min]:     0.186                   Wall time [min]:     0.011
 
 Second step of Coulomb...
   1% done.
  13% done.
  24% done.
  37% done.
  48% done.
  67% done.
  78% done.
  92% done.
 100% done.
 CPU time [min]:     0.216                   Wall time [min]:     0.012
 
 Gradient norm:      1.1029E-01
 RMS of [F,P]:                                         0.00187804808781
 RMS of difference density:                            0.00497900049871
 Gap [au]:  0.44516508
 ALPHA OCC:   5
 BETA  OCC:   5
 
 ***HARTREE-FOCK ENERGY IN STEP   1 IS        -56.1926610059193692 [AU]
 ======================================================================
 ITERATION STEP   2
 CPU time [min]:     0.235                   Wall time [min]:     0.012
 

 SCF control                  : diis
 Damping factor/level shift   : 0.000/0.000
 DIIS [start/end/frequency]   :   2 /200 /  1

 Constructing Fock-matrix...
 
 Pipek-Mezey localization...
 Step  Convergence
   1   0.000189098375
   2   0.000023220127
   3   0.000003112183
   4   0.000000414335
   5   0.000000055438
   6   0.000000007403
 CPU time [min]:     0.261                   Wall time [min]:     0.012
 
 Constructing local fitting domains...
 Maximum number of atoms in fitting domains:    9
 Average number of atoms in fitting domains:    8.4
 
 First step of Coulomb + first step of exchange...
 Exchange contribution is evaluated for MOs 1 to 5.
   1% done.
  13% done.
  24% done.
  37% done.
  48% done.
  67% done.
  78% done.
  92% done.
 100% done.
 Fitting and assembly step of exchange...
 CPU time [min]:     0.358                   Wall time [min]:     0.014
 
 Second step of Coulomb...
   1% done.
  13% done.
  24% done.
  37% done.
  48% done.
  67% done.
  78% done.
  92% done.
 100% done.
 CPU time [min]:     0.387                   Wall time [min]:     0.014
 
 Gradient norm:      3.0186E-02
 DIIS is running in this iteration step.
 RMS of [F,P]:                                         0.00033891222619
 RMS of difference density:                            0.00072537419220
 Gap [au]:  0.44976347
 ALPHA OCC:   5
 BETA  OCC:   5
 
 ***HARTREE-FOCK ENERGY IN STEP   2 IS        -56.2033269719655308 [AU]
 
 Step comparison  Energy Drift [au]  DIIS error drift  Gradient drift
        1            1.0666E-02         1.5391E-03       8.0106E-02
        2            5.6203E+01         1.0000E-09       8.0106E-02
 ======================================================================
 ITERATION STEP   3
 CPU time [min]:     0.406                   Wall time [min]:     0.015
 

 SCF control                  : diis
 Damping factor/level shift   : 0.000/0.000
 DIIS [start/end/frequency]   :   2 /200 /  1

 Constructing Fock-matrix...
 
 Pipek-Mezey localization...
 Step  Convergence
   1   0.020221309683
   2   0.022189676508
   3   0.000140965606
   4   0.000002383799
   5   0.000000100230
   6   0.000000008753
 CPU time [min]:     0.432                   Wall time [min]:     0.015
 
 Constructing local fitting domains...
 Local fitting domains are unchanged.
 
 First step of Coulomb + first step of exchange...
 Exchange contribution is evaluated for MOs 1 to 5.
   1% done.
  13% done.
  24% done.
  37% done.
  48% done.
  67% done.
  78% done.
  92% done.
 100% done.
 Fitting and assembly step of exchange...
 CPU time [min]:     0.528                   Wall time [min]:     0.017
 
 Second step of Coulomb...
   1% done.
  13% done.
  24% done.
  37% done.
  48% done.
  67% done.
  78% done.
  92% done.
 100% done.
 CPU time [min]:     0.557                   Wall time [min]:     0.017
 
 Gradient norm:      1.0313E-02
 DIIS is running in this iteration step.
 RMS of [F,P]:                                         0.00011684154561
 RMS of difference density:                            0.00027998023861
 Gap [au]:  0.45030883
 ALPHA OCC:   5
 BETA  OCC:   5
 
 ***HARTREE-FOCK ENERGY IN STEP   3 IS        -56.2042026866828479 [AU]
 
 Step comparison  Energy Drift [au]  DIIS error drift  Gradient drift
        2            8.7571E-04         2.2207E-04       1.9873E-02
 ======================================================================
 ITERATION STEP   4
 CPU time [min]:     0.579                   Wall time [min]:     0.018
 

 SCF control                  : diis
 Damping factor/level shift   : 0.000/0.000
 DIIS [start/end/frequency]   :   2 /200 /  1

 Constructing Fock-matrix...
 
 Pipek-Mezey localization...
 Step  Convergence
   1   0.019963593642
   2   0.022134504083
   3   0.000089513170
   4   0.000000862517
   5   0.000000052757
   6   0.000000005280
 CPU time [min]:     0.604                   Wall time [min]:     0.018
 
 Constructing local fitting domains...
 Local fitting domains are unchanged.
 
 First step of Coulomb + first step of exchange...
 Exchange contribution is evaluated for MOs 1 to 5.
   1% done.
  13% done.
  24% done.
  37% done.
  48% done.
  67% done.
  78% done.
  92% done.
 100% done.
 Fitting and assembly step of exchange...
 CPU time [min]:     0.700                   Wall time [min]:     0.020
 
 Second step of Coulomb...
   1% done.
  13% done.
  24% done.
  37% done.
  48% done.
  67% done.
  78% done.
  92% done.
 100% done.
 CPU time [min]:     0.729                   Wall time [min]:     0.020
 
 Gradient norm:      3.4433E-03
 DIIS is running in this iteration step.
 RMS of [F,P]:                                         0.00002964101713
 RMS of difference density:                            0.00007085437134
 Gap [au]:  0.44885996
 ALPHA OCC:   5
 BETA  OCC:   5
 
 ***HARTREE-FOCK ENERGY IN STEP   4 IS        -56.2043483451534200 [AU]
 
 Step comparison  Energy Drift [au]  DIIS error drift  Gradient drift
[...]
   97    1     1.000000        8
   98    1     0.999699        8
   99    1     1.000000        8
  100    1     1.000000        8
  101    1     1.000000        8
  102    1     1.000000        8
  103    1     1.000000        8
  104    1     0.999999        8
  105    4     0.991526        9   10   11   12
  106    4     0.999658        9   10   11   12
  107    4     0.999869        9   10   11   12
  108    1     0.987919        9
  109    3     0.989028        9   10   11
  110    3     0.996772        9   10   11
  111    3     0.996189        9   10   12
  112    2     0.991859        9   11
  113    3     0.998629        9   10   11
  114    2     0.986120        9   12
  115    1     0.995586        9
  116    1     0.993896        9
  117    1     0.994175        9
  118    1     0.999774        9
  119    1     0.999304        9
  120    1     0.999604        9
  121    1     0.999978        9
  122    1     0.999178        9
  123    1     0.999618        9
  124    1     0.998839        9
  125    1     0.999354        9
  126    1     0.999972        9
  127    1     0.998610        9
  128    2     0.998483        9   10
  129    2     0.997683        9   10
  130    2     0.998663        9   10
  131    2     0.999069        9   10
  132    2     0.999345        9   10
  133    2     0.998577        9   10
  134    2     0.996436        9   10
  135    2     0.991476        9   10
  136    2     0.990767        9   10
  137    2     0.998489        9   11
  138    2     0.997693        9   11
  139    2     0.998666        9   11
  140    2     0.999762        9   11
  141    2     0.998729        9   11
  142    2     0.980469       11   12
  143    2     0.998234        9   11
  144    2     0.988540        9   11
  145    2     0.992451        9   11
  146    2     0.998468        9   12
  147    2     0.997688        9   12
  148    2     0.998666        9   12
  149    2     0.998835        9   12
  150    2     0.998503        9   12
  151    2     0.999697        9   12
  152    2     0.993435        9   12
  153    2     0.992877        9   12
  154    2     0.992406        9   12
 CPU time [min]:     0.023                   Wall time [min]:     0.003
 
 C1 point group was detected
 
 Constructing orbital domains...
 CPU time [min]:     0.032                   Wall time [min]:     0.003
 
 Dimensions of the primary domains:     Minimum / Average / Maximum
 
 Number of atoms in domain:                   4       4.0         4
 Number of atoms in occ BP domain:            2       3.5         4
 Number of atoms in PAO BP domain:            1       1.3         4
 Number of atomic orbitals:                  50      50.0        50
 Number of PAOs:                             32      41.8        45
 
 Prescreening pairs...
 CPU time [min]:     0.052                   Wall time [min]:     0.004
 
 Occupied LMO domain definition with Boughton-Pulay completeness:    0.9999900000
 
   MO  Natoms  Completeness   Atoms
    1    8     0.999999        1    2    3    4    9   10   11   12
    2    7     0.999999        1    2    4    9   10   11   12
    3    9     1.000000        1    2    3    4    7    9   10   11   12
    4    8     1.000000        1    2    3    4    9   10   11   12
 
 Executing the Boughton-Pulay algorithm...
  with occ MO completeness:    0.9850000000
 
   MO  Natoms  Completeness   Atoms
    1    1     0.998548        9
    2    2     0.999111        9   11
    3    2     0.999098        9   12
    4    2     0.999117        9   10
 CPU time [min]:     0.064                   Wall time [min]:     0.004
 
 Dimensions of the occupied LMO domains:  Minimum / Average / Maximum
 
 Number of atoms in domain:                   7       8.0         9
 Number of atomic orbitals:                  91     100.0       109
 
 Total number of pairs:   6
 Number of distant pairs: 0 (0.0%)
 Sum of multipole based pair energies:      0.0000000000
 
 CPU time [min]:     0.068                   Wall time [min]:     0.004
 Number of strong pairs: 6 (100.0%)
 chtol from minp:   1.000000000000000E-006
        1.93 MB memory is used for domain independent quantities
 
 Calculating the contribution of occupied LMOs...
    using local fitting domains
 
 MO:     1
 Number of atoms in domain:      12
    Number of atoms in PCD:      12
 Number of atomic orbitals:     150
 Number of atoms for local DF:   12
 Number of fitting functions:   423 (100.00%)
 Number of occupied orbitals:     4
 Number of virtual  orbitals:   145
 Number of Cholesky vectors:      9
 MP2 energy in ED [au]:          -0.050606966156
 Number of occupied LNOs:         4 (100.00%)
 Number of virtual  LNOs:        44  (30.34%)
 Number of Cholesky vectors:      8
 MP2 energy in LIS [au]:         -0.050605844080
 Correction for frozen LNO [au]: -0.000001122076     (0.002%)
 Number of NAFs:                144  (34.04%)
 CPU time [min]:     0.862                   Wall time [min]:     0.018
 

 Direct DF-CCSD(T) calculation
 
 Convergence criterion:  1.0E-05
 
 Number of occupied/virtual/auxiliary orbitals:     4    44   144
     11.89 MB is the minimal memory requirement for (T)
      7.35 MB is the minimal memory requirement for CCSD
 
 MP2 correlation energy [au]:       -0.200518682468
 
 LMP2 domain correlation energy contribution [au]:       -0.050605803053
 
 CPU time [min]:     0.916                   Wall time [min]:     0.019
 
 
 Starting CCSD iterations...
 
                     Residual norm       Correlation Energy
 Iteration  1        0.119046676743       -0.210018554144
 Iteration  2        0.033054408281       -0.214783090181
 Iteration  3        0.010021908749       -0.215750074428
 Iteration  4        0.002602911659       -0.215728735831
 Iteration  5        0.000744369406       -0.215742270991
 Iteration  6        0.000219580233       -0.215742919448
 Iteration  7        0.000063843768       -0.215741281821
 
 CCSD iteration has converged in  7 steps.
       22.37 MB memory was utilized by CCSD
 
 T1 diagnostic:      9.844E-03            D1 diagnostic:      2.359E-02
 
 T1 contribution [au]:                         0.000000000000
 CCSD correlation energy [au]:                -0.053840301162
 
 CPU time [min]:     1.041                   Wall time [min]:     0.021
 
 Calculation of (T) correction...
 
 Laplace threshold, nquadmin:  1.00E-03   4
 Number of quadrature points:    4
 
       12.01 MB memory is utilized for (T)

 0%       25%       50%       75%       100%
 |---------|---------|---------|---------| 
 
 (T) correction [au]:                   -0.001521050816
 CCSD(T) correlation energy [au]:       -0.055361351978
 
 CPU time [min]:     1.096                   Wall time [min]:     0.022
 
 MO:     2
 Number of atoms in domain:      12
    Number of atoms in PCD:      12
 Number of atomic orbitals:     150
 Number of atoms for local DF:   12
 Number of fitting functions:   423 (100.00%)
 Number of occupied orbitals:     4
 Number of virtual  orbitals:   145
 Number of Cholesky vectors:      9
 MP2 energy in ED [au]:          -0.049974374693
 Number of occupied LNOs:         4 (100.00%)
 Number of virtual  LNOs:        42  (28.97%)
 Number of Cholesky vectors:      8
 MP2 energy in LIS [au]:         -0.049972579542
 Correction for frozen LNO [au]: -0.000001795150     (0.004%)
 Number of NAFs:                140  (33.10%)
 CPU time [min]:     1.749                   Wall time [min]:     0.033
 

 Direct DF-CCSD(T) calculation
 
 Convergence criterion:  1.0E-05
 
 Number of occupied/virtual/auxiliary orbitals:     4    42   140
     10.73 MB is the minimal memory requirement for (T)
      6.82 MB is the minimal memory requirement for CCSD
 
 MP2 correlation energy [au]:       -0.200466460952
 
 LMP2 domain correlation energy contribution [au]:       -0.049972264741
 
 CPU time [min]:     1.800                   Wall time [min]:     0.033
 
 
 Starting CCSD iterations...
 
                     Residual norm       Correlation Energy
 Iteration  1        0.119019197927       -0.209972868814
 Iteration  2        0.033035048535       -0.214747895121
 Iteration  3        0.009954664786       -0.215702343638
 Iteration  4        0.002584428321       -0.215681487778
 Iteration  5        0.000735167434       -0.215695525123
 Iteration  6        0.000217539204       -0.215696033159
 Iteration  7        0.000062588369       -0.215694493017
 
 CCSD iteration has converged in  7 steps.
       19.30 MB memory was utilized by CCSD
 
 T1 diagnostic:      9.805E-03            D1 diagnostic:      2.347E-02
 
 T1 contribution [au]:                         0.000000000000
 CCSD correlation energy [au]:                -0.053969114098
 
 CPU time [min]:     1.919                   Wall time [min]:     0.035
 
 Calculation of (T) correction...
 
 Laplace threshold, nquadmin:  1.00E-03   4
 Number of quadrature points:    4
 
       10.84 MB memory is utilized for (T)

 0%       25%       50%       75%       100%
 |---------|---------|---------|---------| 
 
 (T) correction [au]:                   -0.001358640235
 CCSD(T) correlation energy [au]:       -0.055327754333
 
 CPU time [min]:     1.970                   Wall time [min]:     0.036
 
 MO:     3
 Number of atoms in domain:      12
    Number of atoms in PCD:      12
 Number of atomic orbitals:     150
 Number of atoms for local DF:   12
 Number of fitting functions:   423 (100.00%)
 Number of occupied orbitals:     4
 Number of virtual  orbitals:   145
 Number of Cholesky vectors:      9
 MP2 energy in ED [au]:          -0.049986054694
 Number of occupied LNOs:         4 (100.00%)
 Number of virtual  LNOs:        42  (28.97%)
 Number of Cholesky vectors:      8
 MP2 energy in LIS [au]:         -0.049983895733
 Correction for frozen LNO [au]: -0.000002158961     (0.004%)
 Number of NAFs:                140  (33.10%)
 CPU time [min]:     2.606                   Wall time [min]:     0.047
 

 Direct DF-CCSD(T) calculation
 
 Convergence criterion:  1.0E-05
 
 Number of occupied/virtual/auxiliary orbitals:     4    42   140
     10.73 MB is the minimal memory requirement for (T)
      6.82 MB is the minimal memory requirement for CCSD
 
 MP2 correlation energy [au]:       -0.200462441285
 
 LMP2 domain correlation energy contribution [au]:       -0.049983413730
 
 CPU time [min]:     2.657                   Wall time [min]:     0.048
 
 
 Starting CCSD iterations...
 
                     Residual norm       Correlation Energy
 Iteration  1        0.119016522717       -0.209968148903
 Iteration  2        0.033036882719       -0.214742444551
 Iteration  3        0.009959421885       -0.215697971272
 Iteration  4        0.002587716144       -0.215677114782
 Iteration  5        0.000737984026       -0.215691034228
 Iteration  6        0.000218655906       -0.215691615757
 Iteration  7        0.000063332160       -0.215690037405
 
 CCSD iteration has converged in  7 steps.
       19.30 MB memory was utilized by CCSD
 
 T1 diagnostic:      9.814E-03            D1 diagnostic:      2.350E-02
 
 T1 contribution [au]:                         0.000000000000
 CCSD correlation energy [au]:                -0.053976360850
 
 CPU time [min]:     2.776                   Wall time [min]:     0.050
 
 Calculation of (T) correction...
 
 Laplace threshold, nquadmin:  1.00E-03   4
 Number of quadrature points:    4
 
       10.84 MB memory is utilized for (T)

 0%       25%       50%       75%       100%
 |---------|---------|---------|---------| 
 
 (T) correction [au]:                   -0.001359280495
 CCSD(T) correlation energy [au]:       -0.055335641346
 
 CPU time [min]:     2.829                   Wall time [min]:     0.051
 
 MO:     4
 Number of atoms in domain:      12
    Number of atoms in PCD:      12
 Number of atomic orbitals:     150
 Number of atoms for local DF:   12
 Number of fitting functions:   423 (100.00%)
 Number of occupied orbitals:     4
 Number of virtual  orbitals:   145
 Number of Cholesky vectors:      9
 MP2 energy in ED [au]:          -0.049978175828
 Number of occupied LNOs:         4 (100.00%)
 Number of virtual  LNOs:        42  (28.97%)
 Number of Cholesky vectors:      8
 MP2 energy in LIS [au]:         -0.049976357206
 Correction for frozen LNO [au]: -0.000001818621     (0.004%)
 Number of NAFs:                140  (33.10%)
 CPU time [min]:     3.514                   Wall time [min]:     0.062
 

 Direct DF-CCSD(T) calculation
 
 Convergence criterion:  1.0E-05
 
 Number of occupied/virtual/auxiliary orbitals:     4    42   140
     10.73 MB is the minimal memory requirement for (T)
      6.82 MB is the minimal memory requirement for CCSD
 
 MP2 correlation energy [au]:       -0.200470289811
 
 LMP2 domain correlation energy contribution [au]:       -0.049975980181
 
 CPU time [min]:     3.566                   Wall time [min]:     0.063
 
 
 Starting CCSD iterations...
 
                     Residual norm       Correlation Energy
 Iteration  1        0.119019604835       -0.209976190907
 Iteration  2        0.033025995037       -0.214757484497
 Iteration  3        0.009912290111       -0.215701746257
 Iteration  4        0.002560753827       -0.215682344703
 Iteration  5        0.000723140292       -0.215696450524
 Iteration  6        0.000211964825       -0.215697213424
 Iteration  7        0.000060663233       -0.215695803000
 
 CCSD iteration has converged in  7 steps.
       19.30 MB memory was utilized by CCSD
 
 T1 diagnostic:      9.735E-03            D1 diagnostic:      2.324E-02
 
 T1 contribution [au]:                         0.000000000000
 CCSD correlation energy [au]:                -0.053971314226
 
 CPU time [min]:     3.688                   Wall time [min]:     0.065
 
 Calculation of (T) correction...
 
 Laplace threshold, nquadmin:  1.00E-03   4
 Number of quadrature points:    4
 
       10.84 MB memory is utilized for (T)

 0%       25%       50%       75%       100%
 |---------|---------|---------|---------| 
 
 (T) correction [au]:                   -0.001358473187
 CCSD(T) correlation energy [au]:       -0.055329787413
 
 CPU time [min]:     3.741                   Wall time [min]:     0.066
 
 **********************************************************************
 Dimensions of the extended domains:    Minimum / Average / Maximum
 
 Number of atoms in domain:                  12      12.0        12
 Number of atomic orbitals:                 150     150.0       150
 Number of fitting functions:               423     423.0       423
 Number of occupied localized MOs:            4       4.0         4
 Number of PAOs:                            145     145.0       145
 Number of occupied LNOs:                     4       4.0         4
 Number of virtual  LNOs:                    42      42.5        44
 Number of NAFs:                            140     141.0       144
 
 **********************************************************************
 Distant (and weak) pair contributions, corrections
 
 Sum of pair energies [au]:                     0.000000000000    (0.000%)
 Sum of energy corrections [au]:               -0.000006894809    (0.003%)
 Pair energies + LNO corrections [au]:         -0.000006894809
 Sum of LMP2 contributions [au]:               -0.200545571370
 
 **********************************************************************
  Time of manipulations in the EDs:      max CPU/Wall [s]  all CPU/Wall [min]
 
 PD construction & multipole pair E       3.97     0.09     0.07     0.00
 Construct MO basis of the ED             1.36     0.02     0.08     0.00
 (mu,nu|P) evaluation & trf 2 (ai|P)      4.77     0.08     0.29     0.00
 Evaluate MP2 energy of the ED            0.21     0.00     0.01     0.00
 Transformations to the LNO basis         0.78     0.01     0.05     0.00
 Build W_PQ (Jai or Jpi part)             0.81     0.02     0.02     0.00
 Evaluate MP2 energy of the LIS           0.14     0.00     0.01     0.00
 (mu,nu|P) evaluation & trf 2 J(abQ)     29.85     0.55     1.72     0.03
 Total of the above for all EDs          37.93     0.69     2.18     0.04
 
 **********************************************************************
 Maximum memory requirement [MB]:       
 
 PD construction & multipole pair E          2.6
 AO integral evaluation in the EDs         315.2
 (mu,nu|P) evaluation & trf 2 (aI|P)       333.1
 Evaluate MP2 energy in the EDs             13.9
 Transformation to the LNO basis             6.3
 (mu,nu|P) to Jab transformation           320.0
 Evaluate MP2 energy in the LIS              9.0
 Minimum requirement for LIS CCSD            7.4
 Actually allocated  for LIS CCSD           22.4
 Minimum requirement for LIS (T)            11.9
 Actually allocated  for LIS (T)            12.0
 
 ======================================================================
 ======================================================================
 
 
 
 ======================================================================
 ======================================================================
 
 Final local CC results:
 
 Minimum number of correlated electrons:         8       (100.0%)
 Maximum number of correlated electrons:         8       (100.0%)
 Average number of correlated electrons:         8.0     (100.0%)
 Minimum number of correlated orbitals:         46       ( 30.9%)
 Maximum number of correlated orbitals:         48       ( 32.2%)
 Average number of correlated orbitals:         46.5     ( 31.2%)
 
 CPU time for integral calculations [min]:                  0.309
 Wall time for integral calculations [min]:                 0.007
 
 CPU time for SCF calculation [min]:                        2.351
 Wall time for SCF calculation [min]:                       0.059
 
 CPU time for orbital localization [min]:                   0.003
 Wall time for orbital localization [min]:                  0.017
 
 CPU time for integral transformations [min]:               2.916
 Wall time for integral transformations [min]:              0.052
 
 Reference energy [au]:                                   -56.204356834531
 
 LMP2 correlation energy [au]:                             -0.200545571370
 Total LMP2 energy [au]:                                  -56.404902405902
 
 Total MP2 correction for dropped NAFs [au]:               -0.000001214857
 Total MP2 correction [au]:                                -0.000008109666
 
 CPU time for CCSD calculations [min]:                      0.658
 Total CPU time for CCSD [min]:                             6.237
 Wall time for CCSD calculations [min]:                     0.011
 Total wall time for CCSD [min]:                            0.146
 
 CCSD correlation energy [au]:                             -0.215757090336
 Total CCSD energy [au]:                                  -56.420113924867
 CCSD correlation energy + 0.5 MP2 corrections [au]:       -0.215761145169
 Total LNO-CCSD energy with MP2 corrections [au]:         -56.420117979700
 
 CPU time for (T) corrections [min]:                        0.211
 Total CPU time for CCSD(T) [min]:                          6.448
 Wall time for (T) corrections [min]:                       0.004
 Total wall time for CCSD(T) [min]:                         0.149
 
 Total (T) correlation energy contribution [au]:           -0.005597444734
 Total (T) correlation energy+0.5 MP2 correction [au]:     -0.005601499567
 CCSD(T) correlation energy [au]:                          -0.221354535070
 Total CCSD(T) energy [au]:                               -56.425711369601
 CCSD(T) correlation energy + MP2 corrections [au]:        -0.221362644736
 Total LNO-CCSD(T) energy with MP2 corrections [au]:      -56.425719479267
 
 ======================================================================
 ======================================================================
 
 ************************ 2026-02-26 23:37:22 *************************
                      Normal termination of mrcc.
 **********************************************************************
