 **********************************************************************
                          MRCC program system
 **********************************************************************
 
                              Written by
     Mihaly Kallay, Peter R. Nagy, David Mester, Laszlo Gyevi-Nagy,
        Jozsef Csoka, P. Bernat Szabo, Zoltan Rolik, Gyula Samu,
     Jozsef Csontos, Bence Hegely, Adam Ganyecz, Istvan Ladjanszki,
       Lorant Szegedy, Bence Ladoczki, Klara Petrov, Mate Farkas,
                    Pal D. Mezei, and Reka A. Horvath
 
        Department of Physical Chemistry and Materials Science
            Budapest University of Technology and Economics
                  Budapest P.O.Box 91, H-1521 Hungary
 
                              www.mrcc.hu
 
                     Release date: August 28, 2023

 ************************ 2026-02-26 16:02:35 *************************
 Executing minp...

 Reading input from MINP...
 
 Input file:
 
charge=0
mult=1
calc=LNO-CCSD(T)
basis=aug-cc-pVQZ
symm=off
verbosity=3
unit=angs
scfalg=locfit1
scfmaxit=200
scftol=8
basis_sm=def2-SVP
usedisk=0
aocd=extra
chtol=1d-6
iesttol=0.001
scfiguess=small
lcorthr=tight
mem=46GB
geom=xyz
4

N      1.04470516527    1.04467805385    1.04472620470
H      1.86198065727    1.39631551807    0.53263274880
H      1.39638040304    0.53260276511    1.86208371977
H      0.53256262530    1.86191282917    1.39633599251
 
 
 Checking keyword combinations...
 
 Keywords:
 
 active=none
 agrid=ld0006-ld0590
 agrid_pssp=ld0006-ld0194
 agrid_pssp_sm=ld0006-ld0074
 basis=aug-cc-pvqz
 basis_sm=def2-svp
 basopt=off
 bfbasis=none
 bfgsmem=10
 bfgstol=1.0d-3
 boysalg=jacobi
 bpcompo=0.985
 bpcompv=0.98
 bpdfo=0.985
 bpocc=0.99995d0
 bppdo=0.999d0
 bppdv=0.98
 bpedo=0.99995d0
 bpedv=0.995d0
 calc=ccsd(t)
 ccmaxit=50
 ccprog=ccsd
 ccsdalg=dfdirect
 ccsdmkl=seq
 ccsdrest=off
 ccsdthreads=2
 cctol=5
 charge=0
 cialg=direct
 ciguess=off
 cmpgrp=auto
 comprest=off
 coord_sys=ric
 core=frozen
 corembed=off
 csapprox=off
 cvs=off
 dboc=off
 delocsomofact=
 dendec=cholesky
 dens=0
 denscorr=0
 dfalg=lineq
 dfbasis_cab=none
 dfbasis_cor=auto
 dfbasis_scf=auto
 dfbasis_scf_sm=auto
 dfintran=drpa
 dft=off
 dhexc=adc(2)
 diag=david
 docc=
 domrad=10.d0
 drpaalg=auto
 dual=off
 dual_df=off
 ecp=auto
 edisp=off
 edisp_embed=off
 embed=off
 epairestfact=off
 epairscale=1.d0
 etemp=300
 epert=none
 eps=
 espcharge=off
 excrad=1.0
 excrad_fin=0.100000000D-02
 fitting=coulomb
 fmm=off
 fmmord=8
 fnonorb=
 freq=off
 gamma=1.4d0
 gauss=spher
 geom=xyz
 gopt=off
 ghost=none
 gtol=7
 grdens=off
 grid=auto
 grid_sm=auto
 gridbatch_cos=2000
 grtol=10
 guido_ct=off
 hamilton=dc
 iface=none
 intalg=auto
 ip_ea=off
 itol=12
 laptol=1.d-3
 lccoporder=lccfirst
 lcorthr=tight
 lccrest=off
 ldfgrad_tol=8
 lmp2dens=on
 lnoepso=3e-6
 lnoepsv=3e-7
 localcc=2021
 localcorrsymm=off
 locintrf=direct
 mact=
 maxact=off
 maxdim=200
 maxex=0
 maxmicroit=100
 mcscfiguess=hf
 mem=46gb
 mmprog=
 molden=on
 mpitasks=1
 mulmet=3
 mult=1
 nab=off
 nacto=0
 nactv=0
 naf_amp=3.16d-3
 naf_cor=1e-2
 naf_f12=off
 naf_scf=off
 nafalg=albe
 nafdens=off
 naftyp=jpq
 nchol=auto
 ndeps=1e-3
 nstate=1
 nsing=0
 nto=off
 ntrip=0
 num_grad=off
 occ=
 occri=off
 oniom=off
 oniom_eechg=off
 oniom_pcm=off
 oniom_qcorr=off
 optalg=
 optmaxit=50
 optetol=1e-6
 optex=0
 optgtol=1e-4
 optstol=1e-3
 orblocc=off
 orbloce=off
 orbloco=boys
 orblocv=pao
 orblocguess=cholesky
 osveps=-1.d0
 ovirt=off
 ovltol=1e-7
 ovosnorb=80.0
 pao_subsys_tol=1e-3
 pcm=off
 popul=off
 pressure=100000
 pssp=off
 ptfreq=0.0
 ptthreads=2
 qmreg=
 qmmm=off
 qro=off
 qscf=off
 redcost_exc=off
 redcost_tddft=0.985d0
 refdet=none
 rest=0
 rgrid=log3
 rism=off
 rohfcore=standard
 rohftype=semicanonical
 scfalg=locfit1
 scf_conv=auto
 scfdamp=0.0d0
 scfdamp_mode=off
 scfdamp_end=200
 scfdamp_dampstep=0.d0
 scfdamp_dtol=0.0d0
 scfdamp_maxfact=0.0d0
 scfdamp_minfact=0.0d0
 scfdiis=on
 scfdiis_dtol=0.0d0
 scfdiis_end=200
 scfdiis_start=2
 scfdiis_step=1
 scfdiis_watch=off
 scfdiis_wrange=10
 scfdiis_wlimit=5
 scfdiis_delmax=2
 scfdtol=9
 scfext=10
 scfguessdens=
 scfiguess=small
 scfloc=pm
 scflshift=0.20
 scflshift_end=8
 scflshift_dtol=0.0
 scflshift_gaptol=0.20
 scfmaxit=200
 scftype=
 scftol=8
 scspe=1.d0
 scsph=1.d0
 scsps=1.2d0
 scsps_t=1.2d0
 scspt=0.33333333333333
 scspt_t=0.33333333333333
 scspv=1.d0
 spairtol=-1.d0
 sqmprog=
 subminp=top
 symm=0
 talg=lapl
 temp=298.15
 test=off
 theodore=off
 tlmo=0.999
 tpao=0.94
 tprint=off
 uncontract=off
 unit=angs
 usedisk=0
 verbosity=3
 wpairtol=3.d-6
 
 Calculating integrals for small-basis SCF...

 ************************ 2026-02-26 16:02:35 *************************
 Executing integ...

 Allocation of 46.0 Gbytes of memory...
 
 
 Number of atoms:                  4
 Charge:                           0
 Number of electrons:             10
 Number of core electrons:         2
 Spin multiplicity:                1
 
                 Cartesian coordinates [bohr]      Atomic mass [AMU]  Z
   1  N     1.97420664    1.97415541    1.97424640    14.003074       7
   2  H     3.51863349    2.63865391    1.00653002     1.007825       1
   3  H     2.63877653    1.00647336    3.51882825     1.007825       1
   4  H     1.00639751    3.51850532    2.63869260     1.007825       1
 
 This molecule is an asymmetric top.
 
 Rotational constants [cm-1]: 
      9.725611553639      9.725262897102      6.126632394896
 
 Point group: C1  
 Computational point group: C1  
 
 Cartesian coordinates in standard orientation [bohr]
   1  N     0.00001974   -0.00000801   -0.12725315
   2  H     1.29159153    1.25758525    0.58939811
   3  H    -1.73502610    0.48986803    0.58928866
   4  H     0.44316034   -1.74734193    0.58941309
 
 Nuclear repulsion energy [au]:         11.785797783990
 
Warning: for H atoms in the case of dfbasis_scf=auto the AO basis is set as dfbasis_scf instead of def2-qzvp(pd)-ri-jk because the AO basis is larger. Set the dfbasis_scf=def2-qzvp(pd)-ri-jk in MINP if that is desired.
 
 
 Basis set information:
 
 Maximum angular momentum: g
 Maximum number of contracted Gaussians:   10
 Maximum number of primitive Gaussians:    14
 Spherical harmonic GTOs are used.
 
 
 Conventional basis set:
 
   1  N  def2-svp [ 7s 4p 1d | 3s 2p 1d ]
   2  H  def2-svp [ 4s 1p | 2s 1p ]
   3  H  def2-svp [ 4s 1p | 2s 1p ]
   4  H  def2-svp [ 4s 1p | 2s 1p ]
 
 Basis functions:
            1             2             3             4             5             6             7             8             9            10
    0    1N1s          1N2s          1N3s          1N1pz         1N1py         1N1px         1N2pz         1N2py         1N2px         1N1d-2    
    1    1N1d-1        1N1d0         1N1d+1        1N1d+2        2H1s          2H2s          2H1pz         2H1py         2H1px         3H1s      
    2    3H2s          3H1pz         3H1py         3H1px         4H1s          4H2s          4H1pz         4H1py         4H1px     
 
 Maximum number of basis functions per shell:    6
 Total number of basis functions:     29
 
 
 Fitting basis set for the SCF calculation:
 
   1  N  def2-qzvpp-ri-jk [ 14s 10p 6d 2f 1g | 10s 8p 4d 2f 1g ]
   2  H  def2-qzvpp [ 7s 3p 2d 1f | 4s 3p 2d 1f ]
   3  H  def2-qzvpp [ 7s 3p 2d 1f | 4s 3p 2d 1f ]
   4  H  def2-qzvpp [ 7s 3p 2d 1f | 4s 3p 2d 1f ]
 
 Basis functions:
            1             2             3             4             5             6             7             8             9            10
    0    1N1s          1N2s          1N3s          1N4s          1N5s          1N6s          1N7s          1N8s          1N9s          1N10s     
    1    1N1pz         1N1py         1N1px         1N2pz         1N2py         1N2px         1N3pz         1N3py         1N3px         1N4pz     
    2    1N4py         1N4px         1N5pz         1N5py         1N5px         1N6pz         1N6py         1N6px         1N7pz         1N7py     
    3    1N7px         1N8pz         1N8py         1N8px         1N1d-2        1N1d-1        1N1d0         1N1d+1        1N1d+2        1N2d-2    
    4    1N2d-1        1N2d0         1N2d+1        1N2d+2        1N3d-2        1N3d-1        1N3d0         1N3d+1        1N3d+2        1N4d-2    
    5    1N4d-1        1N4d0         1N4d+1        1N4d+2        1N1f-3        1N1f-2        1N1f-1        1N1f0         1N1f+1        1N1f+2    
    6    1N1f+3        1N2f-3        1N2f-2        1N2f-1        1N2f0         1N2f+1        1N2f+2        1N2f+3        1N1g-4        1N1g-3    
    7    1N1g-2        1N1g-1        1N1g0         1N1g+1        1N1g+2        1N1g+3        1N1g+4        2H1s          2H2s          2H3s      
    8    2H4s          2H1pz         2H1py         2H1px         2H2pz         2H2py         2H2px         2H3pz         2H3py         2H3px     
    9    2H1d-2        2H1d-1        2H1d0         2H1d+1        2H1d+2        2H2d-2        2H2d-1        2H2d0         2H2d+1        2H2d+2    
   10    2H1f-3        2H1f-2        2H1f-1        2H1f0         2H1f+1        2H1f+2        2H1f+3        3H1s          3H2s          3H3s      
   11    3H4s          3H1pz         3H1py         3H1px         3H2pz         3H2py         3H2px         3H3pz         3H3py         3H3px     
   12    3H1d-2        3H1d-1        3H1d0         3H1d+1        3H1d+2        3H2d-2        3H2d-1        3H2d0         3H2d+1        3H2d+2    
   13    3H1f-3        3H1f-2        3H1f-1        3H1f0         3H1f+1        3H1f+2        3H1f+3        4H1s          4H2s          4H3s      
   14    4H4s          4H1pz         4H1py         4H1px         4H2pz         4H2py         4H2px         4H3pz         4H3py         4H3px     
   15    4H1d-2        4H1d-1        4H1d0         4H1d+1        4H1d+2        4H2d-2        4H2d-1        4H2d0         4H2d+1        4H2d+2    
   16    4H1f-3        4H1f-2        4H1f-1        4H1f0         4H1f+1        4H1f+2        4H1f+3    
 
 Maximum number of basis functions per shell:   24
 Total number of basis functions:    167
 
 
 Initializing the SAD routines for the initial guess...
 Checking the files required for the initial guess...
 Density files have not been found for the initial guess.
 Generating SCFDENSITIES.N.def2-svp.0
 Generating SCFDENSITIES.H.def2-svp.0
 CPU time [min]:     0.219                   Wall time [min]:     0.139
 
 Character table for point group C1:
 
          E  
    A     1
 
 Number of basis functions per irrep:
    A      29
 
 
 Calculation of overlap integrals...
 CPU time [min]:     0.222                   Wall time [min]:     0.139
 
 Calculation of the square root of the overlap matrix...
 Minimum eigenvalue of the overlap matrix: 0.299700E-01
 CPU time [min]:     0.232                   Wall time [min]:     0.139
 
 Calculation of kinetic energy integrals...
 CPU time [min]:     0.232                   Wall time [min]:     0.139
 Calculation of dipole moment integrals...
 CPU time [min]:     0.233                   Wall time [min]:     0.139
 Calculation of nuclear attraction integrals...
 CPU time [min]:     0.235                   Wall time [min]:     0.139
 
 Calculation of prescreening integrals...
 CPU time [min]:     0.240                   Wall time [min]:     0.140
 
 Calculation of two-center Coulomb integrals...
   4% done.
  17% done.
  29% done.
  41% done.
  52% done.
  67% done.
  81% done.
  92% done.
 100% done.
 CPU time [min]:     0.251                   Wall time [min]:     0.140
 
 Cholesky decomposition of the two-center matrix...
 Reciprocal of the condition number:  0.167239E-04
 CPU time [min]:     0.259                   Wall time [min]:     0.140
 
 
 Running small-basis SCF...

 ************************ 2026-02-26 16:02:44 *************************
 Executing scf...

 @scfsetup: integrals calculated directly
            mrcc/integ direct run
 @scfsetup: calculating on full matrices
            not using symmetry adapted basis
 @scfsetup: diis switched on
 @scfsetup: number of steps to extrapolate from  10
 @scfsetup: tolerance in energy deviation    0.100000E-07
            tolerance in density deviation    0.100000E-08
 @scfsetup: maximum number of iterations: 200
 @scfsetup: restricted closed shell hf calc
 @scfsetup: starting scf from superposition of atomic densities
 @scfsetup: occupation set:
            from initial orbitals
 @scfsetup: Parameter-set for SCF acceleration: normal
 @scfsetup: diis runs from iteration:   2
 @scfsetup: diis runs to iteration: 200
 @scfsetup: diis runs in every iteration
 @scfsetup: diiswatch is disabled                   
 @scfsetup: diis dtol criteria to switch on:      0.0000E+00
           (or the iteration number below is reached)
 @scfsetup: static damping scheme
            iteration step criteria to turn damping off: 3
 @scfsetup: dynamic level shifting
            tolarance in HOMO-LUMO gap:  0.200
            tolarance in density deviation:     0.0000E+00
            iteration step criteria to turn level shifting off: 8
 Allocation of 46.0 Gbytes of memory...
 ======================================================================
 ITERATION STEP   1
 CPU time [min]:     0.013                   Wall time [min]:     0.009
 

 SCF control                  : initial
 Damping factor/level shift   : 0.000/0.200
 DIIS [start/end/frequency]   :   2 /200 /  1

 Constructing Fock-matrix...
 
 Pipek-Mezey localization...
 Step  Convergence
   1   0.873798573124
   2   0.008736858163
   3   0.000074099303
   4   0.000000081563
   5   0.000000000038
 CPU time [min]:     0.040                   Wall time [min]:     0.009
 
 Constructing local fitting domains...
 Maximum number of atoms in fitting domains:    4
 Average number of atoms in fitting domains:    4.0
 
 First step of Coulomb + first step of exchange...
 Exchange contribution is evaluated for MOs 1 to 5.
   1% done.
  24% done.
  44% done.
  69% done.
  81% done.
 100% done.
 Fitting and assembly step of exchange...
 CPU time [min]:     0.098                   Wall time [min]:     0.010
 
 Second step of Coulomb...
   1% done.
  24% done.
  44% done.
  69% done.
  81% done.
 100% done.
 CPU time [min]:     0.109                   Wall time [min]:     0.010
 
 Gradient norm:      2.3664E+00
 RMS of [F,P]:                                         0.07444276031761
 RMS of difference density:                            0.02720928658296
 Gap [au]:  0.68128128
 ALPHA OCC:   5
 BETA  OCC:   5
 
 ***HARTREE-FOCK ENERGY IN STEP   1 IS        -55.8598434686342245 [AU]
 ======================================================================
 ITERATION STEP   2
 CPU time [min]:     0.120                   Wall time [min]:     0.010
 

 SCF control                  : diis
 Damping factor/level shift   : 0.000/0.000
 DIIS [start/end/frequency]   :   2 /200 /  1

 Constructing Fock-matrix...
 
 Pipek-Mezey localization...
 Step  Convergence
   1   0.020418000600
   2   0.019555871644
   3   0.000001927698
   4   0.000000000220
 CPU time [min]:     0.146                   Wall time [min]:     0.011
 
 Constructing local fitting domains...
 Maximum number of atoms in fitting domains:    4
 Average number of atoms in fitting domains:    4.0
 
 First step of Coulomb + first step of exchange...
 Exchange contribution is evaluated for MOs 1 to 5.
   1% done.
  24% done.
  44% done.
  69% done.
  81% done.
 100% done.
 Fitting and assembly step of exchange...
 CPU time [min]:     0.199                   Wall time [min]:     0.012
 
 Second step of Coulomb...
   1% done.
  24% done.
  44% done.
  69% done.
  81% done.
 100% done.
 CPU time [min]:     0.209                   Wall time [min]:     0.012
 
 Gradient norm:      3.2144E-01
 DIIS is running in this iteration step.
 RMS of [F,P]:                                         0.01591305358201
 RMS of difference density:                            0.01259210863730
 Gap [au]:  0.55096003
 ALPHA OCC:   5
 BETA  OCC:   5
 
 ***HARTREE-FOCK ENERGY IN STEP   2 IS        -56.1230170647279891 [AU]
 
 Step comparison  Energy Drift [au]  DIIS error drift  Gradient drift
        1            2.6317E-01         5.8530E-02       2.0449E+00
        2            5.6123E+01         1.0000E-09       2.0449E+00
 ======================================================================
 ITERATION STEP   3
 CPU time [min]:     0.224                   Wall time [min]:     0.012
 

 SCF control                  : diis
 Damping factor/level shift   : 0.000/0.000
 DIIS [start/end/frequency]   :   2 /200 /  1

 Constructing Fock-matrix...
 
 Pipek-Mezey localization...
 Step  Convergence
   1   0.020181604040
   2   0.019633772778
   3   0.000001917177
   4   0.000000000170
 CPU time [min]:     0.250                   Wall time [min]:     0.012
 
 Constructing local fitting domains...
 Local fitting domains are unchanged.
 
 First step of Coulomb + first step of exchange...
 Exchange contribution is evaluated for MOs 1 to 5.
   1% done.
  24% done.
  44% done.
  69% done.
  81% done.
 100% done.
 Fitting and assembly step of exchange...
 CPU time [min]:     0.301                   Wall time [min]:     0.013
 
 Second step of Coulomb...
   1% done.
  24% done.
  44% done.
  69% done.
  81% done.
 100% done.
 CPU time [min]:     0.312                   Wall time [min]:     0.013
 
 Gradient norm:      1.2618E-01
 DIIS is running in this iteration step.
 RMS of [F,P]:                                         0.00757072561700
 RMS of difference density:                            0.00382840372987
 Gap [au]:  0.60146371
 ALPHA OCC:   5
 BETA  OCC:   5
 
 ***HARTREE-FOCK ENERGY IN STEP   3 IS        -56.1422980725252430 [AU]
 
 Step comparison  Energy Drift [au]  DIIS error drift  Gradient drift
        2            1.9281E-02         8.3423E-03       1.9526E-01
 ======================================================================
 ITERATION STEP   4
 CPU time [min]:     0.326                   Wall time [min]:     0.014
 

 SCF control                  : diis
 Damping factor/level shift   : 0.000/0.000
 DIIS [start/end/frequency]   :   2 /200 /  1

 Constructing Fock-matrix...
 
 Pipek-Mezey localization...
 Step  Convergence
   1   0.019983383551
   2   0.019608466454
   3   0.000001417445
   4   0.000000000123
 CPU time [min]:     0.352                   Wall time [min]:     0.014
 
 Constructing local fitting domains...
 Local fitting domains are unchanged.
 
 First step of Coulomb + first step of exchange...
 Exchange contribution is evaluated for MOs 1 to 5.
   1% done.
  24% done.
  44% done.
  69% done.
  81% done.
 100% done.
 Fitting and assembly step of exchange...
 CPU time [min]:     0.404                   Wall time [min]:     0.015
 
 Second step of Coulomb...
   1% done.
  24% done.
  44% done.
  69% done.
  81% done.
 100% done.
 CPU time [min]:     0.414                   Wall time [min]:     0.015
 
 Gradient norm:      2.4156E-02
 DIIS is running in this iteration step.
 RMS of [F,P]:                                         0.00093697741831
 RMS of difference density:                            0.00095507407499
 Gap [au]:  0.59396192
 ALPHA OCC:   5
 BETA  OCC:   5
 
 ***HARTREE-FOCK ENERGY IN STEP   4 IS        -56.1475427510163172 [AU]
 
 Step comparison  Energy Drift [au]  DIIS error drift  Gradient drift
        3            5.2447E-03         6.6337E-03       1.0202E-01
 ======================================================================
 ITERATION STEP   5
 CPU time [min]:     0.428                   Wall time [min]:     0.015
 

 SCF control                  : diis
 Damping factor/level shift   : 0.000/0.000
 DIIS [start/end/frequency]   :   2 /200 /  1

 Constructing Fock-matrix...
 
 Pipek-Mezey localization...
 Step  Convergence
   1   0.030044941695
   2   0.029585266659
   3   0.000003638800
   4   0.000000001327
 CPU time [min]:     0.455                   Wall time [min]:     0.016
 
 Constructing local fitting domains...
 Local fitting domains are unchanged.
 
 First step of Coulomb + first step of exchange...
 Exchange contribution is evaluated for MOs 1 to 5.
   1% done.
  24% done.
  44% done.
  69% done.
  81% done.
 100% done.
 Fitting and assembly step of exchange...
 CPU time [min]:     0.507                   Wall time [min]:     0.016
 
 Second step of Coulomb...
   1% done.
  24% done.
  44% done.
  69% done.
  81% done.
 100% done.
 CPU time [min]:     0.517                   Wall time [min]:     0.017
 
 Gradient norm:      2.0154E-03
 DIIS is running in this iteration step.
 RMS of [F,P]:                                         0.00015510984758
 RMS of difference density:                            0.00013120494954
 Gap [au]:  0.59421495
 ALPHA OCC:   5
 BETA  OCC:   5
 
 ***HARTREE-FOCK ENERGY IN STEP   5 IS        -56.1477030126657226 [AU]
 
 Step comparison  Energy Drift [au]  DIIS error drift  Gradient drift
        4            1.6026E-04         7.8187E-04       2.2141E-02
 ======================================================================
 ITERATION STEP   6
 CPU time [min]:     0.531                   Wall time [min]:     0.017
 

 SCF control                  : diis
 Damping factor/level shift   : 0.000/0.000
 DIIS [start/end/frequency]   :   2 /200 /  1

 Constructing Fock-matrix...
 
 Pipek-Mezey localization...
 Step  Convergence
   1   0.040054141958
   2   0.039652135218
   3   0.000036712258
   4   0.000000077460
   5   0.000000000011
 CPU time [min]:     0.558                   Wall time [min]:     0.017
 
 Constructing local fitting domains...
 Local fitting domains are unchanged.
 
 First step of Coulomb + first step of exchange...
 Exchange contribution is evaluated for MOs 1 to 5.
   1% done.
  24% done.
  44% done.
  69% done.
  81% done.
 100% done.
 Fitting and assembly step of exchange...
 CPU time [min]:     0.610                   Wall time [min]:     0.018
 
 Second step of Coulomb...
   1% done.
  24% done.
  44% done.
  69% done.
  81% done.
 100% done.
 CPU time [min]:     0.620                   Wall time [min]:     0.018
 
 Gradient norm:      3.2202E-04
 DIIS is running in this iteration step.
 RMS of [F,P]:                                         0.00001618926555
 RMS of difference density:                            0.00001213393178
 Gap [au]:  0.59420397
 ALPHA OCC:   5
 BETA  OCC:   5
 
 ***HARTREE-FOCK ENERGY IN STEP   6 IS        -56.1477062778576368 [AU]
 
 Step comparison  Energy Drift [au]  DIIS error drift  Gradient drift
        5            3.2652E-06         1.3892E-04       1.6934E-03
 ======================================================================
 ITERATION STEP   7
 CPU time [min]:     0.635                   Wall time [min]:     0.018
 

 SCF control                  : diis
 Damping factor/level shift   : 0.000/0.000
 DIIS [start/end/frequency]   :   2 /200 /  1

 Constructing Fock-matrix...
 
 Pipek-Mezey localization...
 Step  Convergence
   1   0.045570531322
   2   0.045788265958
   3   0.000062500703
   4   0.000000254394
   5   0.000000000512
   6   0.000000000001
   7   0.000000000000
 CPU time [min]:     0.661                   Wall time [min]:     0.019
 
 Constructing local fitting domains...
 Local fitting domains are unchanged.
 
 First step of Coulomb + first step of exchange...
 Exchange contribution is evaluated for MOs 1 to 5.
   1% done.
  24% done.
  44% done.
  69% done.
  81% done.
 100% done.
 Fitting and assembly step of exchange...
 CPU time [min]:     0.714                   Wall time [min]:     0.020
 
 Second step of Coulomb...
   1% done.
  24% done.
  44% done.
  69% done.
  81% done.
 100% done.
 CPU time [min]:     0.724                   Wall time [min]:     0.020
 
 Gradient norm:      7.7177E-05
 DIIS is running in this iteration step.
 RMS of [F,P]:                                         0.00000262781542
 RMS of difference density:                            0.00000286551457
 Gap [au]:  0.59419393
 ALPHA OCC:   5
 BETA  OCC:   5
 
 ***HARTREE-FOCK ENERGY IN STEP   7 IS        -56.1477063132997571 [AU]
 
 Step comparison  Energy Drift [au]  DIIS error drift  Gradient drift
        6            3.5442E-08         1.3561E-05       2.4484E-04
 ======================================================================
 ITERATION STEP   8
 CPU time [min]:     0.739                   Wall time [min]:     0.020
 

 SCF control                  : diis
 Damping factor/level shift   : 0.000/0.000
 DIIS [start/end/frequency]   :   2 /200 /  1

 Constructing Fock-matrix...
 
 Pipek-Mezey localization...
 Step  Convergence
   1   0.045216548259
   2   0.043861122653
   3   0.000010852325
   4   0.000000003400
   5   0.000000000005
   6   0.000000000000
 CPU time [min]:     0.766                   Wall time [min]:     0.021
 
 Constructing local fitting domains...
 Local fitting domains are unchanged.
 
 First step of Coulomb + first step of exchange...
 Exchange contribution is evaluated for MOs 1 to 5.
   1% done.
  24% done.
  44% done.
  69% done.
  81% done.
 100% done.
 Fitting and assembly step of exchange...
 CPU time [min]:     0.818                   Wall time [min]:     0.021
 
 Second step of Coulomb...
   1% done.
  24% done.
  44% done.
  69% done.
  81% done.
 100% done.
 CPU time [min]:     0.828                   Wall time [min]:     0.021
 
 Gradient norm:      1.0792E-05
 DIIS is running in this iteration step.
 RMS of [F,P]:                                         0.00000054055437
 RMS of difference density:                            0.00000096802677
 Gap [au]:  0.59419003
 ALPHA OCC:   5
 BETA  OCC:   5
 
 ***HARTREE-FOCK ENERGY IN STEP   8 IS        -56.1477063149529414 [AU]
 
 Step comparison  Energy Drift [au]  DIIS error drift  Gradient drift
        7            1.6532E-09         2.0873E-06       6.6385E-05
 ======================================================================
 ITERATION STEP   9
 CPU time [min]:     0.846                   Wall time [min]:     0.022
 

 SCF control                  : diis
 Damping factor/level shift   : 0.000/0.000
 DIIS [start/end/frequency]   :   2 /200 /  1

 Constructing Fock-matrix...
 
 Pipek-Mezey localization...
 Step  Convergence
   1   0.045421792699
   2   0.043854348941
   3   0.000011319759
   4   0.000000003194
   5   0.000000000004
   6   0.000000000000
 CPU time [min]:     0.872                   Wall time [min]:     0.022
 
 Constructing local fitting domains...
 Local fitting domains are unchanged.
 
 First step of Coulomb + first step of exchange...
 Exchange contribution is evaluated for MOs 1 to 5.
   1% done.
  24% done.
  44% done.
  69% done.
  81% done.
 100% done.
 Fitting and assembly step of exchange...
 CPU time [min]:     0.924                   Wall time [min]:     0.023
 
 Second step of Coulomb...
   1% done.
  24% done.
  44% done.
  69% done.
  81% done.
 100% done.
 CPU time [min]:     0.934                   Wall time [min]:     0.023
 
 Gradient norm:      3.1569E-06
 DIIS is running in this iteration step.
 RMS of [F,P]:                                         0.00000009591344
 RMS of difference density:                            0.00000029099195
 Gap [au]:  0.59418987
 ALPHA OCC:   5
 BETA  OCC:   5
 
 ***HARTREE-FOCK ENERGY IN STEP   9 IS        -56.1477063150560838 [AU]
 
 Step comparison  Energy Drift [au]  DIIS error drift  Gradient drift
        8            1.0314E-10         4.4464E-07       7.6352E-06
 ======================================================================
 ITERATION STEP  10
 CPU time [min]:     0.949                   Wall time [min]:     0.023
 

 SCF control                  : diis
 Damping factor/level shift   : 0.000/0.000
 DIIS [start/end/frequency]   :   2 /200 /  1

 Constructing Fock-matrix...
 
 Pipek-Mezey localization...
 Step  Convergence
   1   0.040235535386
   2   0.039645769362
   3   0.000002796826
   4   0.000000000239
   5   0.000000000000
 CPU time [min]:     0.975                   Wall time [min]:     0.024
 
 Constructing local fitting domains...
 Local fitting domains are unchanged.
 
 First step of Coulomb + first step of exchange...
 Exchange contribution is evaluated for MOs 1 to 5.
   1% done.
  24% done.
  44% done.
  69% done.
  81% done.
 100% done.
 Fitting and assembly step of exchange...
 CPU time [min]:     1.027                   Wall time [min]:     0.025
 
 Second step of Coulomb...
   1% done.
  24% done.
  44% done.
  69% done.
  81% done.
 100% done.
 CPU time [min]:     1.036                   Wall time [min]:     0.025
 
 Gradient norm:      6.3566E-07
 DIIS is running in this iteration step.
 RMS of [F,P]:                                         0.00000002162531
 RMS of difference density:                            0.00000007192092
 Gap [au]:  0.59418990
 ALPHA OCC:   5
 BETA  OCC:   5
 
 ***HARTREE-FOCK ENERGY IN STEP  10 IS        -56.1477063150608728 [AU]
 
 Step comparison  Energy Drift [au]  DIIS error drift  Gradient drift
        9            4.7891E-12         7.4288E-08       2.5213E-06
 ======================================================================
 ITERATION STEP  11
 CPU time [min]:     1.050                   Wall time [min]:     0.025
 

 SCF control                  : diis
 Damping factor/level shift   : 0.000/0.000
 DIIS [start/end/frequency]   :   2 /200 /  1

 Constructing Fock-matrix...
 
 Pipek-Mezey localization...
 Step  Convergence
   1   0.029925271892
   2   0.029787276011
   3   0.000055268862
   4   0.000000101490
   5   0.000000000388
   6   0.000000000000
 CPU time [min]:     1.077                   Wall time [min]:     0.025
 
 Constructing local fitting domains...
 Local fitting domains are unchanged.
 
 First step of Coulomb + first step of exchange...
 Exchange contribution is evaluated for MOs 1 to 5.
   1% done.
  24% done.
  44% done.
  69% done.
  81% done.
 100% done.
 Fitting and assembly step of exchange...
 CPU time [min]:     1.128                   Wall time [min]:     0.026
 
 Second step of Coulomb...
   1% done.
  24% done.
  44% done.
  69% done.
  81% done.
 100% done.
 CPU time [min]:     1.138                   Wall time [min]:     0.026
 
 Gradient norm:      4.4728E-08
 DIIS is running in this iteration step.
 RMS of [F,P]:                                         0.00000000196020
 RMS of difference density:                            0.00000000390138
 Gap [au]:  0.59418991
 ALPHA OCC:   5
 BETA  OCC:   5
 
 ***HARTREE-FOCK ENERGY IN STEP  11 IS        -56.1477063150610647 [AU]
 
 Step comparison  Energy Drift [au]  DIIS error drift  Gradient drift
       10            1.9185E-13         1.9665E-08       5.9093E-07
 ======================================================================
 ITERATION STEP  12
 CPU time [min]:     1.152                   Wall time [min]:     0.027
 

 SCF control                  : diis
 Damping factor/level shift   : 0.000/0.000
 DIIS [start/end/frequency]   :   2 /200 /  1

 Constructing Fock-matrix...
 
 Pipek-Mezey localization...
 Step  Convergence
   1   0.040107727035
   2   0.039624681870
   3   0.000006178819
   4   0.000000002222
   5   0.000000000002
   6   0.000000000000
 CPU time [min]:     1.178                   Wall time [min]:     0.027
 
 Constructing local fitting domains...
 Local fitting domains are unchanged.
 
 First step of Coulomb + first step of exchange...
 Exchange contribution is evaluated for MOs 1 to 5.
   1% done.
  24% done.
  44% done.
  69% done.
  81% done.
 100% done.
 Fitting and assembly step of exchange...
 CPU time [min]:     1.229                   Wall time [min]:     0.028
 
 Second step of Coulomb...
   1% done.
  24% done.
  44% done.
  69% done.
  81% done.
 100% done.
 CPU time [min]:     1.239                   Wall time [min]:     0.028
 
 Gradient norm:      3.1969E-09
 DIIS is running in this iteration step.
 RMS of [F,P]:                                         0.00000000016317
 RMS of difference density:                            0.00000000023249
 Gap [au]:  0.59418991
 ALPHA OCC:   5
 BETA  OCC:   5
 
 ***HARTREE-FOCK ENERGY IN STEP  12 IS        -56.1477063150611144 [AU]
 
 Step comparison  Energy Drift [au]  DIIS error drift  Gradient drift
       11            4.9738E-14         1.7970E-09       4.1531E-08
 
 The SCF iteration has converged.
 An extra iteration will be performed to calculate accurate SCF energy.
 
 ======================================================================
 ITERATION STEP  13
 CPU time [min]:     1.254                   Wall time [min]:     0.028
 

 SCF control                  : diis
 Damping factor/level shift   : 0.000/0.000
 DIIS [start/end/frequency]   :   2 /200 /  1

 Constructing Fock-matrix...
 
 Pipek-Mezey localization...
 Step  Convergence
   1   0.040024331880
   2   0.039673991923
   3   0.000037031670
   4   0.000000077618
   5   0.000000000011
   6   0.000000000000
 CPU time [min]:     1.280                   Wall time [min]:     0.029
 
 Constructing local fitting domains...
 Local fitting domains are unchanged.
 
 First step of Coulomb + first step of exchange...
 Exchange contribution is evaluated for MOs 1 to 5.
   1% done.
  24% done.
  44% done.
  69% done.
  81% done.
 100% done.
 Fitting and assembly step of exchange...
 CPU time [min]:     1.331                   Wall time [min]:     0.029
 
 Second step of Coulomb...
   1% done.
  24% done.
  44% done.
  69% done.
  81% done.
 100% done.
 CPU time [min]:     1.341                   Wall time [min]:     0.030
 
 Gradient norm:      5.1115E-10
 RMS of [F,P]:                                         0.00000000002716
 RMS of difference density:                            0.00000000003347
 Gap [au]:  0.59418991
 ALPHA OCC:   5
 BETA  OCC:   5
 
 ***HARTREE-FOCK ENERGY IN STEP  13 IS        -56.1477063150611428 [AU]
 
 Step comparison  Energy Drift [au]  DIIS error drift  Gradient drift
       12            2.8422E-14         1.3601E-10       2.6857E-09
 ======================================================================
 
 SUCCESS...
 THE SCF ITERATION HAS CONVERGED!
 
                   A   
 FINAL ALPHA OCC:   5
 FINAL BETA  OCC:   5
 
 ***FINAL HARTREE-FOCK ENERGY:        -56.1477063150611428 [AU]
 
 Orbital energies [au]:
      Irrep         Alpha          Beta
    1   A        -15.539163     -15.539163
    2   A         -1.111214      -1.111214
    3   A         -0.615134      -0.615134
    4   A         -0.615103      -0.615103
    5   A         -0.418560      -0.418560
 
    6   A          0.175630       0.175630
    7   A          0.268893       0.268893
    8   A          0.268900       0.268900
    9   A          0.733854       0.733854
   10   A          0.733893       0.733893
   11   A          0.882385       0.882385
   12   A          0.990000       0.990000
   13   A          1.093598       1.093598
   14   A          1.093606       1.093606
   15   A          1.140263       1.140263
   16   A          1.459621       1.459621
   17   A          1.459637       1.459637
   18   A          1.866467       1.866467
   19   A          1.964301       1.964301
   20   A          2.074287       2.074287
   21   A          2.074298       2.074298
   22   A          2.418489       2.418489
   23   A          2.418604       2.418604
   24   A          2.745580       2.745580
   25   A          3.155563       3.155563
   26   A          3.155580       3.155580
   27   A          3.258821       3.258821
   28   A          3.692147       3.692147
   29   A          3.692186       3.692186
 
 RETURNING FROM SCF ALGORITHM
 ======================================================================

 ************************ 2026-02-26 16:02:46 *************************
 Executing integ...

 Allocation of 46.0 Gbytes of memory...
 
 
 Number of atoms:                  4
 Charge:                           0
 Number of electrons:             10
 Number of core electrons:         2
 Spin multiplicity:                1
 
                 Cartesian coordinates [bohr]      Atomic mass [AMU]  Z
   1  N     1.97420664    1.97415541    1.97424640    14.003074       7
   2  H     3.51863349    2.63865391    1.00653002     1.007825       1
   3  H     2.63877653    1.00647336    3.51882825     1.007825       1
   4  H     1.00639751    3.51850532    2.63869260     1.007825       1
 
 This molecule is an asymmetric top.
 
 Rotational constants [cm-1]: 
      9.725611553639      9.725262897102      6.126632394896
 
 Point group: C1  
 Computational point group: C1  
 
 Cartesian coordinates in standard orientation [bohr]
   1  N     0.00001974   -0.00000801   -0.12725315
   2  H     1.29159153    1.25758525    0.58939811
   3  H    -1.73502610    0.48986803    0.58928866
   4  H     0.44316034   -1.74734193    0.58941309
 
 Nuclear repulsion energy [au]:         11.785797783990
 
 
 Basis set information:
 
 Maximum angular momentum: h
 Maximum number of contracted Gaussians:   11
 Maximum number of primitive Gaussians:    14
 Spherical harmonic GTOs are used.
 
 
 Conventional basis set:
 
   1  N  aug-cc-pvqz [ 13s 7p 4d 3f 2g | 6s 5p 4d 3f 2g ]
   2  H  aug-cc-pvqz [ 7s 4p 3d 2f | 5s 4p 3d 2f ]
   3  H  aug-cc-pvqz [ 7s 4p 3d 2f | 5s 4p 3d 2f ]
   4  H  aug-cc-pvqz [ 7s 4p 3d 2f | 5s 4p 3d 2f ]
 
 Basis functions:
            1             2             3             4             5             6             7             8             9            10
    0    1N1s          1N2s          1N3s          1N4s          1N5s          1N6s          1N1pz         1N1py         1N1px         1N2pz     
    1    1N2py         1N2px         1N3pz         1N3py         1N3px         1N4pz         1N4py         1N4px         1N5pz         1N5py     
    2    1N5px         1N1d-2        1N1d-1        1N1d0         1N1d+1        1N1d+2        1N2d-2        1N2d-1        1N2d0         1N2d+1    
    3    1N2d+2        1N3d-2        1N3d-1        1N3d0         1N3d+1        1N3d+2        1N4d-2        1N4d-1        1N4d0         1N4d+1    
    4    1N4d+2        1N1f-3        1N1f-2        1N1f-1        1N1f0         1N1f+1        1N1f+2        1N1f+3        1N2f-3        1N2f-2    
    5    1N2f-1        1N2f0         1N2f+1        1N2f+2        1N2f+3        1N3f-3        1N3f-2        1N3f-1        1N3f0         1N3f+1    
    6    1N3f+2        1N3f+3        1N1g-4        1N1g-3        1N1g-2        1N1g-1        1N1g0         1N1g+1        1N1g+2        1N1g+3    
    7    1N1g+4        1N2g-4        1N2g-3        1N2g-2        1N2g-1        1N2g0         1N2g+1        1N2g+2        1N2g+3        1N2g+4    
    8    2H1s          2H2s          2H3s          2H4s          2H5s          2H1pz         2H1py         2H1px         2H2pz         2H2py     
    9    2H2px         2H3pz         2H3py         2H3px         2H4pz         2H4py         2H4px         2H1d-2        2H1d-1        2H1d0     
   10    2H1d+1        2H1d+2        2H2d-2        2H2d-1        2H2d0         2H2d+1        2H2d+2        2H3d-2        2H3d-1        2H3d0     
   11    2H3d+1        2H3d+2        2H1f-3        2H1f-2        2H1f-1        2H1f0         2H1f+1        2H1f+2        2H1f+3        2H2f-3    
   12    2H2f-2        2H2f-1        2H2f0         2H2f+1        2H2f+2        2H2f+3        3H1s          3H2s          3H3s          3H4s      
   13    3H5s          3H1pz         3H1py         3H1px         3H2pz         3H2py         3H2px         3H3pz         3H3py         3H3px     
   14    3H4pz         3H4py         3H4px         3H1d-2        3H1d-1        3H1d0         3H1d+1        3H1d+2        3H2d-2        3H2d-1    
   15    3H2d0         3H2d+1        3H2d+2        3H3d-2        3H3d-1        3H3d0         3H3d+1        3H3d+2        3H1f-3        3H1f-2    
   16    3H1f-1        3H1f0         3H1f+1        3H1f+2        3H1f+3        3H2f-3        3H2f-2        3H2f-1        3H2f0         3H2f+1    
   17    3H2f+2        3H2f+3        4H1s          4H2s          4H3s          4H4s          4H5s          4H1pz         4H1py         4H1px     
   18    4H2pz         4H2py         4H2px         4H3pz         4H3py         4H3px         4H4pz         4H4py         4H4px         4H1d-2    
   19    4H1d-1        4H1d0         4H1d+1        4H1d+2        4H2d-2        4H2d-1        4H2d0         4H2d+1        4H2d+2        4H3d-2    
   20    4H3d-1        4H3d0         4H3d+1        4H3d+2        4H1f-3        4H1f-2        4H1f-1        4H1f0         4H1f+1        4H1f+2    
   21    4H1f+3        4H2f-3        4H2f-2        4H2f-1        4H2f0         4H2f+1        4H2f+2        4H2f+3    
 
 Maximum number of basis functions per shell:   21
 Total number of basis functions:    218
 
 
 Fitting basis set for the SCF calculation:
 
   1  N  aug-cc-pvqz-ri-jk [ 11s 8p 6d 4f 3g 2h | 11s 8p 6d 4f 3g 2h ]
   2  H  aug-cc-pvqz-ri-jk [ 5s 4p 4d 3f 2g | 5s 4p 4d 3f 2g ]
   3  H  aug-cc-pvqz-ri-jk [ 5s 4p 4d 3f 2g | 5s 4p 4d 3f 2g ]
   4  H  aug-cc-pvqz-ri-jk [ 5s 4p 4d 3f 2g | 5s 4p 4d 3f 2g ]
 
 Basis functions:
            1             2             3             4             5             6             7             8             9            10
    0    1N1s          1N2s          1N3s          1N4s          1N5s          1N6s          1N7s          1N8s          1N9s          1N10s     
    1    1N11s         1N1pz         1N1py         1N1px         1N2pz         1N2py         1N2px         1N3pz         1N3py         1N3px     
    2    1N4pz         1N4py         1N4px         1N5pz         1N5py         1N5px         1N6pz         1N6py         1N6px         1N7pz     
    3    1N7py         1N7px         1N8pz         1N8py         1N8px         1N1d-2        1N1d-1        1N1d0         1N1d+1        1N1d+2    
    4    1N2d-2        1N2d-1        1N2d0         1N2d+1        1N2d+2        1N3d-2        1N3d-1        1N3d0         1N3d+1        1N3d+2    
    5    1N4d-2        1N4d-1        1N4d0         1N4d+1        1N4d+2        1N5d-2        1N5d-1        1N5d0         1N5d+1        1N5d+2    
    6    1N6d-2        1N6d-1        1N6d0         1N6d+1        1N6d+2        1N1f-3        1N1f-2        1N1f-1        1N1f0         1N1f+1    
    7    1N1f+2        1N1f+3        1N2f-3        1N2f-2        1N2f-1        1N2f0         1N2f+1        1N2f+2        1N2f+3        1N3f-3    
    8    1N3f-2        1N3f-1        1N3f0         1N3f+1        1N3f+2        1N3f+3        1N4f-3        1N4f-2        1N4f-1        1N4f0     
    9    1N4f+1        1N4f+2        1N4f+3        1N1g-4        1N1g-3        1N1g-2        1N1g-1        1N1g0         1N1g+1        1N1g+2    
   10    1N1g+3        1N1g+4        1N2g-4        1N2g-3        1N2g-2        1N2g-1        1N2g0         1N2g+1        1N2g+2        1N2g+3    
   11    1N2g+4        1N3g-4        1N3g-3        1N3g-2        1N3g-1        1N3g0         1N3g+1        1N3g+2        1N3g+3        1N3g+4    
   12    1N1h-5        1N1h-4        1N1h-3        1N1h-2        1N1h-1        1N1h0         1N1h+1        1N1h+2        1N1h+3        1N1h+4    
   13    1N1h+5        1N2h-5        1N2h-4        1N2h-3        1N2h-2        1N2h-1        1N2h0         1N2h+1        1N2h+2        1N2h+3    
   14    1N2h+4        1N2h+5        2H1s          2H2s          2H3s          2H4s          2H5s          2H1pz         2H1py         2H1px     
   15    2H2pz         2H2py         2H2px         2H3pz         2H3py         2H3px         2H4pz         2H4py         2H4px         2H1d-2    
   16    2H1d-1        2H1d0         2H1d+1        2H1d+2        2H2d-2        2H2d-1        2H2d0         2H2d+1        2H2d+2        2H3d-2    
   17    2H3d-1        2H3d0         2H3d+1        2H3d+2        2H4d-2        2H4d-1        2H4d0         2H4d+1        2H4d+2        2H1f-3    
   18    2H1f-2        2H1f-1        2H1f0         2H1f+1        2H1f+2        2H1f+3        2H2f-3        2H2f-2        2H2f-1        2H2f0     
   19    2H2f+1        2H2f+2        2H2f+3        2H3f-3        2H3f-2        2H3f-1        2H3f0         2H3f+1        2H3f+2        2H3f+3    
   20    2H1g-4        2H1g-3        2H1g-2        2H1g-1        2H1g0         2H1g+1        2H1g+2        2H1g+3        2H1g+4        2H2g-4    
   21    2H2g-3        2H2g-2        2H2g-1        2H2g0         2H2g+1        2H2g+2        2H2g+3        2H2g+4        3H1s          3H2s      
   22    3H3s          3H4s          3H5s          3H1pz         3H1py         3H1px         3H2pz         3H2py         3H2px         3H3pz     
   23    3H3py         3H3px         3H4pz         3H4py         3H4px         3H1d-2        3H1d-1        3H1d0         3H1d+1        3H1d+2    
   24    3H2d-2        3H2d-1        3H2d0         3H2d+1        3H2d+2        3H3d-2        3H3d-1        3H3d0         3H3d+1        3H3d+2    
   25    3H4d-2        3H4d-1        3H4d0         3H4d+1        3H4d+2        3H1f-3        3H1f-2        3H1f-1        3H1f0         3H1f+1    
   26    3H1f+2        3H1f+3        3H2f-3        3H2f-2        3H2f-1        3H2f0         3H2f+1        3H2f+2        3H2f+3        3H3f-3    
   27    3H3f-2        3H3f-1        3H3f0         3H3f+1        3H3f+2        3H3f+3        3H1g-4        3H1g-3        3H1g-2        3H1g-1    
   28    3H1g0         3H1g+1        3H1g+2        3H1g+3        3H1g+4        3H2g-4        3H2g-3        3H2g-2        3H2g-1        3H2g0     
   29    3H2g+1        3H2g+2        3H2g+3        3H2g+4        4H1s          4H2s          4H3s          4H4s          4H5s          4H1pz     
   30    4H1py         4H1px         4H2pz         4H2py         4H2px         4H3pz         4H3py         4H3px         4H4pz         4H4py     
   31    4H4px         4H1d-2        4H1d-1        4H1d0         4H1d+1        4H1d+2        4H2d-2        4H2d-1        4H2d0         4H2d+1    
   32    4H2d+2        4H3d-2        4H3d-1        4H3d0         4H3d+1        4H3d+2        4H4d-2        4H4d-1        4H4d0         4H4d+1    
   33    4H4d+2        4H1f-3        4H1f-2        4H1f-1        4H1f0         4H1f+1        4H1f+2        4H1f+3        4H2f-3        4H2f-2    
   34    4H2f-1        4H2f0         4H2f+1        4H2f+2        4H2f+3        4H3f-3        4H3f-2        4H3f-1        4H3f0         4H3f+1    
   35    4H3f+2        4H3f+3        4H1g-4        4H1g-3        4H1g-2        4H1g-1        4H1g0         4H1g+1        4H1g+2        4H1g+3    
   36    4H1g+4        4H2g-4        4H2g-3        4H2g-2        4H2g-1        4H2g0         4H2g+1        4H2g+2        4H2g+3        4H2g+4    
 
 Maximum number of basis functions per shell:   30
 Total number of basis functions:    370
 
 
 Fitting basis set for the correlation calculation:
 
   1  N  aug-cc-pvqz-ri [ 9s 8p 7d 6f 4g 2h | 9s 8p 7d 6f 4g 2h ]
   2  H  aug-cc-pvqz-ri [ 6s 5p 4d 3f 2g | 6s 5p 4d 3f 2g ]
   3  H  aug-cc-pvqz-ri [ 6s 5p 4d 3f 2g | 6s 5p 4d 3f 2g ]
   4  H  aug-cc-pvqz-ri [ 6s 5p 4d 3f 2g | 6s 5p 4d 3f 2g ]
 
 Basis functions:
            1             2             3             4             5             6             7             8             9            10
    0    1N1s          1N2s          1N3s          1N4s          1N5s          1N6s          1N7s          1N8s          1N9s          1N1pz     
    1    1N1py         1N1px         1N2pz         1N2py         1N2px         1N3pz         1N3py         1N3px         1N4pz         1N4py     
    2    1N4px         1N5pz         1N5py         1N5px         1N6pz         1N6py         1N6px         1N7pz         1N7py         1N7px     
    3    1N8pz         1N8py         1N8px         1N1d-2        1N1d-1        1N1d0         1N1d+1        1N1d+2        1N2d-2        1N2d-1    
    4    1N2d0         1N2d+1        1N2d+2        1N3d-2        1N3d-1        1N3d0         1N3d+1        1N3d+2        1N4d-2        1N4d-1    
    5    1N4d0         1N4d+1        1N4d+2        1N5d-2        1N5d-1        1N5d0         1N5d+1        1N5d+2        1N6d-2        1N6d-1    
    6    1N6d0         1N6d+1        1N6d+2        1N7d-2        1N7d-1        1N7d0         1N7d+1        1N7d+2        1N1f-3        1N1f-2    
    7    1N1f-1        1N1f0         1N1f+1        1N1f+2        1N1f+3        1N2f-3        1N2f-2        1N2f-1        1N2f0         1N2f+1    
    8    1N2f+2        1N2f+3        1N3f-3        1N3f-2        1N3f-1        1N3f0         1N3f+1        1N3f+2        1N3f+3        1N4f-3    
    9    1N4f-2        1N4f-1        1N4f0         1N4f+1        1N4f+2        1N4f+3        1N5f-3        1N5f-2        1N5f-1        1N5f0     
   10    1N5f+1        1N5f+2        1N5f+3        1N6f-3        1N6f-2        1N6f-1        1N6f0         1N6f+1        1N6f+2        1N6f+3    
   11    1N1g-4        1N1g-3        1N1g-2        1N1g-1        1N1g0         1N1g+1        1N1g+2        1N1g+3        1N1g+4        1N2g-4    
   12    1N2g-3        1N2g-2        1N2g-1        1N2g0         1N2g+1        1N2g+2        1N2g+3        1N2g+4        1N3g-4        1N3g-3    
   13    1N3g-2        1N3g-1        1N3g0         1N3g+1        1N3g+2        1N3g+3        1N3g+4        1N4g-4        1N4g-3        1N4g-2    
   14    1N4g-1        1N4g0         1N4g+1        1N4g+2        1N4g+3        1N4g+4        1N1h-5        1N1h-4        1N1h-3        1N1h-2    
   15    1N1h-1        1N1h0         1N1h+1        1N1h+2        1N1h+3        1N1h+4        1N1h+5        1N2h-5        1N2h-4        1N2h-3    
   16    1N2h-2        1N2h-1        1N2h0         1N2h+1        1N2h+2        1N2h+3        1N2h+4        1N2h+5        2H1s          2H2s      
   17    2H3s          2H4s          2H5s          2H6s          2H1pz         2H1py         2H1px         2H2pz         2H2py         2H2px     
   18    2H3pz         2H3py         2H3px         2H4pz         2H4py         2H4px         2H5pz         2H5py         2H5px         2H1d-2    
   19    2H1d-1        2H1d0         2H1d+1        2H1d+2        2H2d-2        2H2d-1        2H2d0         2H2d+1        2H2d+2        2H3d-2    
   20    2H3d-1        2H3d0         2H3d+1        2H3d+2        2H4d-2        2H4d-1        2H4d0         2H4d+1        2H4d+2        2H1f-3    
   21    2H1f-2        2H1f-1        2H1f0         2H1f+1        2H1f+2        2H1f+3        2H2f-3        2H2f-2        2H2f-1        2H2f0     
   22    2H2f+1        2H2f+2        2H2f+3        2H3f-3        2H3f-2        2H3f-1        2H3f0         2H3f+1        2H3f+2        2H3f+3    
   23    2H1g-4        2H1g-3        2H1g-2        2H1g-1        2H1g0         2H1g+1        2H1g+2        2H1g+3        2H1g+4        2H2g-4    
   24    2H2g-3        2H2g-2        2H2g-1        2H2g0         2H2g+1        2H2g+2        2H2g+3        2H2g+4        3H1s          3H2s      
   25    3H3s          3H4s          3H5s          3H6s          3H1pz         3H1py         3H1px         3H2pz         3H2py         3H2px     
   26    3H3pz         3H3py         3H3px         3H4pz         3H4py         3H4px         3H5pz         3H5py         3H5px         3H1d-2    
   27    3H1d-1        3H1d0         3H1d+1        3H1d+2        3H2d-2        3H2d-1        3H2d0         3H2d+1        3H2d+2        3H3d-2    
   28    3H3d-1        3H3d0         3H3d+1        3H3d+2        3H4d-2        3H4d-1        3H4d0         3H4d+1        3H4d+2        3H1f-3    
   29    3H1f-2        3H1f-1        3H1f0         3H1f+1        3H1f+2        3H1f+3        3H2f-3        3H2f-2        3H2f-1        3H2f0     
   30    3H2f+1        3H2f+2        3H2f+3        3H3f-3        3H3f-2        3H3f-1        3H3f0         3H3f+1        3H3f+2        3H3f+3    
   31    3H1g-4        3H1g-3        3H1g-2        3H1g-1        3H1g0         3H1g+1        3H1g+2        3H1g+3        3H1g+4        3H2g-4    
   32    3H2g-3        3H2g-2        3H2g-1        3H2g0         3H2g+1        3H2g+2        3H2g+3        3H2g+4        4H1s          4H2s      
   33    4H3s          4H4s          4H5s          4H6s          4H1pz         4H1py         4H1px         4H2pz         4H2py         4H2px     
   34    4H3pz         4H3py         4H3px         4H4pz         4H4py         4H4px         4H5pz         4H5py         4H5px         4H1d-2    
   35    4H1d-1        4H1d0         4H1d+1        4H1d+2        4H2d-2        4H2d-1        4H2d0         4H2d+1        4H2d+2        4H3d-2    
   36    4H3d-1        4H3d0         4H3d+1        4H3d+2        4H4d-2        4H4d-1        4H4d0         4H4d+1        4H4d+2        4H1f-3    
   37    4H1f-2        4H1f-1        4H1f0         4H1f+1        4H1f+2        4H1f+3        4H2f-3        4H2f-2        4H2f-1        4H2f0     
   38    4H2f+1        4H2f+2        4H2f+3        4H3f-3        4H3f-2        4H3f-1        4H3f0         4H3f+1        4H3f+2        4H3f+3    
   39    4H1g-4        4H1g-3        4H1g-2        4H1g-1        4H1g0         4H1g+1        4H1g+2        4H1g+3        4H1g+4        4H2g-4    
   40    4H2g-3        4H2g-2        4H2g-1        4H2g0         4H2g+1        4H2g+2        4H2g+3        4H2g+4    
 
 Maximum number of basis functions per shell:   42
 Total number of basis functions:    408
 
 
 Old basis set for SCF restart
 
   1  N  def2-svp [ 7s 4p 1d | 3s 2p 1d ]
   2  H  def2-svp [ 4s 1p | 2s 1p ]
   3  H  def2-svp [ 4s 1p | 2s 1p ]
   4  H  def2-svp [ 4s 1p | 2s 1p ]
 
 Basis functions:
            1             2             3             4             5             6             7             8             9            10
    0    1N1s          1N2s          1N3s          1N1pz         1N1py         1N1px         1N2pz         1N2py         1N2px         1N1d-2    
    1    1N1d-1        1N1d0         1N1d+1        1N1d+2        2H1s          2H2s          2H1pz         2H1py         2H1px         3H1s      
    2    3H2s          3H1pz         3H1py         3H1px         4H1s          4H2s          4H1pz         4H1py         4H1px     
 
 Maximum number of basis functions per shell:   42
 Total number of basis functions:     29
 
 
 Character table for point group C1:
 
          E  
    A     1
 
 Number of basis functions per irrep:
    A     218
 
 
 Calculation of overlap integrals...
 CPU time [min]:     0.132                   Wall time [min]:     0.004
 
 Calculation of the square root of the overlap matrix...
 Minimum eigenvalue of the overlap matrix: 0.493613E-04
 CPU time [min]:     0.154                   Wall time [min]:     0.005
 
 Calculation of kinetic energy integrals...
 CPU time [min]:     0.155                   Wall time [min]:     0.005
 Calculation of dipole moment integrals...
 CPU time [min]:     0.157                   Wall time [min]:     0.005
 Calculation of nuclear attraction integrals...
 CPU time [min]:     0.159                   Wall time [min]:     0.005
 Calculation of overlap integrals...
 CPU time [min]:     0.160                   Wall time [min]:     0.005
 
 Calculation of prescreening integrals...
 CPU time [min]:     0.397                   Wall time [min]:     0.009
 
 Calculation of two-center Coulomb integrals...
   1% done.
  15% done.
  29% done.
  40% done.
  56% done.
  71% done.
  91% done.
 100% done.
 CPU time [min]:     0.410                   Wall time [min]:     0.009
 
 Cholesky decomposition of the two-center matrix...
 Reciprocal of the condition number:  0.161211E-04
 CPU time [min]:     0.418                   Wall time [min]:     0.009
 

 ************************ 2026-02-26 16:02:46 *************************
 Executing scf...

 @scfsetup: integrals calculated directly
            mrcc/integ direct run
 @scfsetup: calculating on full matrices
            not using symmetry adapted basis
 @scfsetup: diis switched on
 @scfsetup: number of steps to extrapolate from  10
 @scfsetup: tolerance in energy deviation    0.100000E-07
            tolerance in density deviation    0.100000E-08
 @scfsetup: maximum number of iterations: 200
 @scfsetup: restricted closed shell hf calc
 @scfsetup: restarting scf from SCFDENSITIES file
 @scfsetup: occupation set:
            from initial orbitals
 @scfsetup: Parameter-set for SCF acceleration: normal
 @scfsetup: diis runs from iteration:   2
 @scfsetup: diis runs to iteration: 200
 @scfsetup: diis runs in every iteration
 @scfsetup: diiswatch is disabled                   
 @scfsetup: diis dtol criteria to switch on:      0.0000E+00
           (or the iteration number below is reached)
 @scfsetup: static damping scheme
            iteration step criteria to turn damping off: 3
 @scfsetup: dynamic level shifting
            tolarance in HOMO-LUMO gap:  0.200
            tolarance in density deviation:     0.0000E+00
            iteration step criteria to turn level shifting off: 8
 Allocation of 46.0 Gbytes of memory...
 ======================================================================
 ITERATION STEP   1
 CPU time [min]:     0.041                   Wall time [min]:     0.014
 

 SCF control                  : initial
 Damping factor/level shift   : 0.000/0.200
 DIIS [start/end/frequency]   :   2 /200 /  1

 Constructing Fock-matrix...
 Inverse square root: The matrix is not positive definite!
 
 Pipek-Mezey localization...
 Step  Convergence
   1   0.972808017363
   2   0.037517748431
   3   0.000369398397
   4   0.000005830265
   5   0.000000126160
   6   0.000000003827
 CPU time [min]:     0.069                   Wall time [min]:     0.015
 
 Constructing local fitting domains...
 Maximum number of atoms in fitting domains:    4
 Average number of atoms in fitting domains:    4.0
 
 First step of Coulomb + first step of exchange...
 Exchange contribution is evaluated for MOs 1 to 5.
   1% done.
  14% done.
  27% done.
  43% done.
  62% done.
  75% done.
  88% done.
 100% done.
 Fitting and assembly step of exchange...
 CPU time [min]:     0.201                   Wall time [min]:     0.017
 
 Second step of Coulomb...
   1% done.
  14% done.
  27% done.
  43% done.
  62% done.
  75% done.
  88% done.
 100% done.
 CPU time [min]:     0.245                   Wall time [min]:     0.017
 
 Gradient norm:      7.9758E-01
 RMS of [F,P]:                                         0.00996892911474
 RMS of difference density:                            0.02051473399439
 Gap [au]:  0.45172478
 ALPHA OCC:   5
 BETA  OCC:   5
 
 ***HARTREE-FOCK ENERGY IN STEP   1 IS        -56.1750302089148192 [AU]
 ======================================================================
 ITERATION STEP   2
 CPU time [min]:     0.272                   Wall time [min]:     0.018
 

 SCF control                  : diis
 Damping factor/level shift   : 0.000/0.000
 DIIS [start/end/frequency]   :   2 /200 /  1

 Constructing Fock-matrix...
 
 Pipek-Mezey localization...
 Step  Convergence
   1   0.019958605715
   2   0.019662038166
   3   0.000003830949
   4   0.000000025806
   5   0.000000000340
 CPU time [min]:     0.295                   Wall time [min]:     0.018
 
 Constructing local fitting domains...
 Maximum number of atoms in fitting domains:    4
 Average number of atoms in fitting domains:    4.0
 
 First step of Coulomb + first step of exchange...
 Exchange contribution is evaluated for MOs 1 to 5.
   1% done.
  14% done.
  27% done.
  43% done.
  62% done.
  75% done.
  88% done.
 100% done.
 Fitting and assembly step of exchange...
 CPU time [min]:     0.415                   Wall time [min]:     0.020
 
 Second step of Coulomb...
   1% done.
  14% done.
  27% done.
  43% done.
  62% done.
  75% done.
  88% done.
 100% done.
 CPU time [min]:     0.459                   Wall time [min]:     0.021
 
 Gradient norm:      5.2914E-02
 DIIS is running in this iteration step.
 RMS of [F,P]:                                         0.00034995926283
 RMS of difference density:                            0.00127251062367
 Gap [au]:  0.45421592
 ALPHA OCC:   5
 BETA  OCC:   5
 
 ***HARTREE-FOCK ENERGY IN STEP   2 IS        -56.2214072362193704 [AU]
 
 Step comparison  Energy Drift [au]  DIIS error drift  Gradient drift
        1            4.6377E-02         9.6190E-03       7.4466E-01
        2            5.6221E+01         1.0000E-09       7.4466E-01
 ======================================================================
 ITERATION STEP   3
 CPU time [min]:     0.483                   Wall time [min]:     0.021
 

 SCF control                  : diis
 Damping factor/level shift   : 0.000/0.000
 DIIS [start/end/frequency]   :   2 /200 /  1

 Constructing Fock-matrix...
 
 Pipek-Mezey localization...
 Step  Convergence
   1   0.030567777642
   2   0.028662062770
   3   0.000056805027
   4   0.000000189028
   5   0.000000000944
 CPU time [min]:     0.506                   Wall time [min]:     0.022
 
 Constructing local fitting domains...
 Local fitting domains are unchanged.
 
 First step of Coulomb + first step of exchange...
 Exchange contribution is evaluated for MOs 1 to 5.
   1% done.
  14% done.
  27% done.
  43% done.
  62% done.
  75% done.
  88% done.
 100% done.
 Fitting and assembly step of exchange...
 CPU time [min]:     0.625                   Wall time [min]:     0.024
 
 Second step of Coulomb...
   1% done.
  14% done.
  27% done.
  43% done.
  62% done.
  75% done.
  88% done.
 100% done.
 CPU time [min]:     0.667                   Wall time [min]:     0.024
 
 Gradient norm:      9.9659E-03
 DIIS is running in this iteration step.
 RMS of [F,P]:                                         0.00008785115757
 RMS of difference density:                            0.00026895172089
 Gap [au]:  0.45617808
 ALPHA OCC:   5
 BETA  OCC:   5
 
 ***HARTREE-FOCK ENERGY IN STEP   3 IS        -56.2223458089285231 [AU]
 
 Step comparison  Energy Drift [au]  DIIS error drift  Gradient drift
        2            9.3857E-04         2.6211E-04       4.2948E-02
 ======================================================================
 ITERATION STEP   4
 CPU time [min]:     0.690                   Wall time [min]:     0.025
 

 SCF control                  : diis
 Damping factor/level shift   : 0.000/0.000
 DIIS [start/end/frequency]   :   2 /200 /  1

 Constructing Fock-matrix...
 
 Pipek-Mezey localization...
 Step  Convergence
   1   0.019947955139
   2   0.019647089323
   3   0.000005278363
   4   0.000000062184
   5   0.000000000704
 CPU time [min]:     0.713                   Wall time [min]:     0.025
 
 Constructing local fitting domains...
 Local fitting domains are unchanged.
 
 First step of Coulomb + first step of exchange...
 Exchange contribution is evaluated for MOs 1 to 5.
   1% done.
  14% done.
  27% done.
  43% done.
  62% done.
  75% done.
  88% done.
 100% done.
 Fitting and assembly step of exchange...
 CPU time [min]:     0.831                   Wall time [min]:     0.027
 
 Second step of Coulomb...
   1% done.
  14% done.
  27% done.
  43% done.
  62% done.
  75% done.
  88% done.
 100% done.
 CPU time [min]:     0.874                   Wall time [min]:     0.028
 
 Gradient norm:      4.2187E-03
 DIIS is running in this iteration step.
 RMS of [F,P]:                                         0.00003329894036
 RMS of difference density:                            0.00006530730972
 Gap [au]:  0.45411863
 ALPHA OCC:   5
 BETA  OCC:   5
 
 ***HARTREE-FOCK ENERGY IN STEP   4 IS        -56.2224811474794350 [AU]
 
 Step comparison  Energy Drift [au]  DIIS error drift  Gradient drift
        3            1.3534E-04         5.4552E-05       5.7471E-03
 ======================================================================
 ITERATION STEP   5
 CPU time [min]:     0.897                   Wall time [min]:     0.028
 

 SCF control                  : diis
 Damping factor/level shift   : 0.000/0.000
 DIIS [start/end/frequency]   :   2 /200 /  1

 Constructing Fock-matrix...
 
 Pipek-Mezey localization...
 Step  Convergence
   1   0.040860523297
   2   0.037047940004
   3   0.000387951067
   4   0.000006944815
   5   0.000000189725
   6   0.000000005786
 CPU time [min]:     0.920                   Wall time [min]:     0.029
 
 Constructing local fitting domains...
 Local fitting domains are unchanged.
 
 First step of Coulomb + first step of exchange...
 Exchange contribution is evaluated for MOs 1 to 5.
   1% done.
  14% done.
  27% done.
  43% done.
  62% done.
  75% done.
  88% done.
 100% done.
 Fitting and assembly step of exchange...
 CPU time [min]:     1.039                   Wall time [min]:     0.030
 
 Second step of Coulomb...
   1% done.
  14% done.
  27% done.
  43% done.
  62% done.
  75% done.
  88% done.
 100% done.
 CPU time [min]:     1.081                   Wall time [min]:     0.031
 
 Gradient norm:      1.3677E-03
 DIIS is running in this iteration step.
 RMS of [F,P]:                                         0.00001639533451
 RMS of difference density:                            0.00003325739438
 Gap [au]:  0.45433702
 ALPHA OCC:   5
 BETA  OCC:   5
 
 ***HARTREE-FOCK ENERGY IN STEP   5 IS        -56.2224991888269443 [AU]
 
 Step comparison  Energy Drift [au]  DIIS error drift  Gradient drift
        4            1.8041E-05         1.6904E-05       2.8510E-03
 ======================================================================
 ITERATION STEP   6
 CPU time [min]:     1.104                   Wall time [min]:     0.031
 

 SCF control                  : diis
 Damping factor/level shift   : 0.000/0.000
 DIIS [start/end/frequency]   :   2 /200 /  1

 Constructing Fock-matrix...
 
 Pipek-Mezey localization...
 Step  Convergence
   1   0.042017037604
   2   0.038714697475
   3   0.000344680995
   4   0.000006848484
   5   0.000000186476
   6   0.000000005814
   7   0.000000000190
   8   0.000000000006
   9   0.000000000000
 CPU time [min]:     1.127                   Wall time [min]:     0.032
 
 Constructing local fitting domains...
 Local fitting domains are unchanged.
 
 First step of Coulomb + first step of exchange...
 Exchange contribution is evaluated for MOs 1 to 5.
   1% done.
  14% done.
  27% done.
  43% done.
  62% done.
  75% done.
  88% done.
 100% done.
 Fitting and assembly step of exchange...
 CPU time [min]:     1.245                   Wall time [min]:     0.034
 
 Second step of Coulomb...
   1% done.
  14% done.
  27% done.
  43% done.
  62% done.
  75% done.
  88% done.
 100% done.
 CPU time [min]:     1.289                   Wall time [min]:     0.034
 
 Gradient norm:      4.1087E-04
 DIIS is running in this iteration step.
 RMS of [F,P]:                                         0.00000258566656
 RMS of difference density:                            0.00000646456230
 Gap [au]:  0.45416060
 ALPHA OCC:   5
 BETA  OCC:   5
 
 ***HARTREE-FOCK ENERGY IN STEP   6 IS        -56.2225025751342429 [AU]
 
 Step comparison  Energy Drift [au]  DIIS error drift  Gradient drift
        5            3.3863E-06         1.3810E-05       9.5683E-04
 ======================================================================
 ITERATION STEP   7
 CPU time [min]:     1.315                   Wall time [min]:     0.035
 

 SCF control                  : diis
 Damping factor/level shift   : 0.000/0.000
 DIIS [start/end/frequency]   :   2 /200 /  1

 Constructing Fock-matrix...
 
 Pipek-Mezey localization...
 Step  Convergence
   1   0.041799566523
   2   0.038795935174
   3   0.000348750895
   4   0.000007000403
   5   0.000000189231
   6   0.000000005744
   7   0.000000000191
   8   0.000000000006
   9   0.000000000000
 CPU time [min]:     1.338                   Wall time [min]:     0.035
 
 Constructing local fitting domains...
 Local fitting domains are unchanged.
 
 First step of Coulomb + first step of exchange...
 Exchange contribution is evaluated for MOs 1 to 5.
   1% done.
  14% done.
  27% done.
  43% done.
  62% done.
  75% done.
  88% done.
 100% done.
 Fitting and assembly step of exchange...
 CPU time [min]:     1.457                   Wall time [min]:     0.037
 
 Second step of Coulomb...
   1% done.
  14% done.
  27% done.
  43% done.
  62% done.
  75% done.
  88% done.
 100% done.
 CPU time [min]:     1.499                   Wall time [min]:     0.038
 
 Gradient norm:      4.4551E-05
 DIIS is running in this iteration step.
 RMS of [F,P]:                                         0.00000035635980
 RMS of difference density:                            0.00000086272628
 Gap [au]:  0.45415599
 ALPHA OCC:   5
 BETA  OCC:   5
 
 ***HARTREE-FOCK ENERGY IN STEP   7 IS        -56.2225026538104515 [AU]
 
 Step comparison  Energy Drift [au]  DIIS error drift  Gradient drift
        6            7.8676E-08         2.2293E-06       3.6632E-04
 ======================================================================
 ITERATION STEP   8
 CPU time [min]:     1.524                   Wall time [min]:     0.038
 

 SCF control                  : diis
 Damping factor/level shift   : 0.000/0.000
 DIIS [start/end/frequency]   :   2 /200 /  1

 Constructing Fock-matrix...
 
 Pipek-Mezey localization...
 Step  Convergence
   1   0.042282217391
   2   0.038982365667
   3   0.000367093336
   4   0.000007842019
   5   0.000000228780
   6   0.000000006789
   7   0.000000000222
   8   0.000000000007
   9   0.000000000000
 CPU time [min]:     1.547                   Wall time [min]:     0.039
 
 Constructing local fitting domains...
 Local fitting domains are unchanged.
 
 First step of Coulomb + first step of exchange...
 Exchange contribution is evaluated for MOs 1 to 5.
   1% done.
  14% done.
  27% done.
  43% done.
  62% done.
  75% done.
  88% done.
 100% done.
 Fitting and assembly step of exchange...
 CPU time [min]:     1.666                   Wall time [min]:     0.041
 
 Second step of Coulomb...
   1% done.
  14% done.
  27% done.
  43% done.
  62% done.
  75% done.
  88% done.
 100% done.
 CPU time [min]:     1.708                   Wall time [min]:     0.041
 
 Gradient norm:      1.7002E-05
 DIIS is running in this iteration step.
 RMS of [F,P]:                                         0.00000012683591
 RMS of difference density:                            0.00000027892940
 Gap [au]:  0.45415602
 ALPHA OCC:   5
 BETA  OCC:   5
 
 ***HARTREE-FOCK ENERGY IN STEP   8 IS        -56.2225026565241635 [AU]
 
 Step comparison  Energy Drift [au]  DIIS error drift  Gradient drift
        7            2.7137E-09         2.2952E-07       2.7549E-05
 ======================================================================
 ITERATION STEP   9
 CPU time [min]:     1.732                   Wall time [min]:     0.042
 

 SCF control                  : diis
 Damping factor/level shift   : 0.000/0.000
 DIIS [start/end/frequency]   :   2 /200 /  1

 Constructing Fock-matrix...
 
 Pipek-Mezey localization...
 Step  Convergence
   1   0.040697985725
   2   0.038599563360
   3   0.000375169530
   4   0.000007902674
   5   0.000000216827
   6   0.000000006685
   7   0.000000000214
   8   0.000000000007
   9   0.000000000000
 CPU time [min]:     1.755                   Wall time [min]:     0.042
 
 Constructing local fitting domains...
 Local fitting domains are unchanged.
 
 First step of Coulomb + first step of exchange...
 Exchange contribution is evaluated for MOs 1 to 5.
   1% done.
  14% done.
  27% done.
  43% done.
  62% done.
  75% done.
  88% done.
 100% done.
 Fitting and assembly step of exchange...
 CPU time [min]:     1.872                   Wall time [min]:     0.044
 
 Second step of Coulomb...
   1% done.
  14% done.
  27% done.
  43% done.
  62% done.
  75% done.
  88% done.
 100% done.
 CPU time [min]:     1.915                   Wall time [min]:     0.045
 
 Gradient norm:      4.0463E-06
 DIIS is running in this iteration step.
 RMS of [F,P]:                                         0.00000002950938
 RMS of difference density:                            0.00000008104103
 Gap [au]:  0.45415585
 ALPHA OCC:   5
 BETA  OCC:   5
 
 ***HARTREE-FOCK ENERGY IN STEP   9 IS        -56.2225026568725781 [AU]
 
 Step comparison  Energy Drift [au]  DIIS error drift  Gradient drift
        8            3.4841E-10         9.7327E-08       1.2956E-05
 ======================================================================
 ITERATION STEP  10
 CPU time [min]:     1.938                   Wall time [min]:     0.045
 

 SCF control                  : diis
 Damping factor/level shift   : 0.000/0.000
 DIIS [start/end/frequency]   :   2 /200 /  1

 Constructing Fock-matrix...
 
 Pipek-Mezey localization...
 Step  Convergence
   1   0.042282888591
   2   0.039095162960
   3   0.000368438138
   4   0.000007922065
   5   0.000000240835
   6   0.000000006659
   7   0.000000000213
   8   0.000000000007
   9   0.000000000000
 CPU time [min]:     1.961                   Wall time [min]:     0.046
 
 Constructing local fitting domains...
 Local fitting domains are unchanged.
 
 First step of Coulomb + first step of exchange...
 Exchange contribution is evaluated for MOs 1 to 5.
   1% done.
  14% done.
  27% done.
  43% done.
  62% done.
  75% done.
  88% done.
 100% done.
 Fitting and assembly step of exchange...
 CPU time [min]:     2.079                   Wall time [min]:     0.047
 
 Second step of Coulomb...
   1% done.
  14% done.
  27% done.
  43% done.
  62% done.
  75% done.
  88% done.
 100% done.
 CPU time [min]:     2.121                   Wall time [min]:     0.048
 
 Gradient norm:      2.5434E-07
 DIIS is running in this iteration step.
 RMS of [F,P]:                                         0.00000000232364
 RMS of difference density:                            0.00000001588511
 Gap [au]:  0.45415584
 ALPHA OCC:   5
 BETA  OCC:   5
 
 ***HARTREE-FOCK ENERGY IN STEP  10 IS        -56.2225026568948749 [AU]
 
 Step comparison  Energy Drift [au]  DIIS error drift  Gradient drift
        9            2.2297E-11         2.7186E-08       3.7920E-06
 ======================================================================
 ITERATION STEP  11
 CPU time [min]:     2.146                   Wall time [min]:     0.049
 

 SCF control                  : diis
 Damping factor/level shift   : 0.000/0.000
 DIIS [start/end/frequency]   :   2 /200 /  1

 Constructing Fock-matrix...
 
 Pipek-Mezey localization...
 Step  Convergence
   1   0.042011669578
   2   0.038477076567
   3   0.000348324038
   4   0.000007029423
   5   0.000000205900
   6   0.000000006083
   7   0.000000000190
   8   0.000000000007
   9   0.000000000000
 CPU time [min]:     2.168                   Wall time [min]:     0.049
 
 Constructing local fitting domains...
 Local fitting domains are unchanged.
 
 First step of Coulomb + first step of exchange...
 Exchange contribution is evaluated for MOs 1 to 5.
   1% done.
  14% done.
  27% done.
  43% done.
  62% done.
  75% done.
  88% done.
 100% done.
 Fitting and assembly step of exchange...
 CPU time [min]:     2.288                   Wall time [min]:     0.051
 
 Second step of Coulomb...
   1% done.
  14% done.
  27% done.
  43% done.
  62% done.
  75% done.
  88% done.
 100% done.
 CPU time [min]:     2.330                   Wall time [min]:     0.052
 
 Gradient norm:      2.0415E-08
 DIIS is running in this iteration step.
 RMS of [F,P]:                                         0.00000000022852
 RMS of difference density:                            0.00000000088201
 Gap [au]:  0.45415585
 ALPHA OCC:   5
 BETA  OCC:   5
 
 ***HARTREE-FOCK ENERGY IN STEP  11 IS        -56.2225026568950312 [AU]
 
 Step comparison  Energy Drift [au]  DIIS error drift  Gradient drift
       10            1.5632E-13         2.0951E-09       2.3393E-07
 
 The SCF iteration has converged.
 An extra iteration will be performed to calculate accurate SCF energy.
 
 ======================================================================
 ITERATION STEP  12
 CPU time [min]:     2.356                   Wall time [min]:     0.052
 

 SCF control                  : diis
 Damping factor/level shift   : 0.000/0.000
 DIIS [start/end/frequency]   :   2 /200 /  1

 Constructing Fock-matrix...
 
 Pipek-Mezey localization...
 Step  Convergence
   1   0.042072633801
   2   0.039247733880
   3   0.000341071174
   4   0.000007273072
   5   0.000000207440
   6   0.000000005889
   7   0.000000000197
   8   0.000000000006
   9   0.000000000000
 CPU time [min]:     2.379                   Wall time [min]:     0.052
 
 Constructing local fitting domains...
 Local fitting domains are unchanged.
 
 First step of Coulomb + first step of exchange...
 Exchange contribution is evaluated for MOs 1 to 5.
   1% done.
  14% done.
  27% done.
  43% done.
  62% done.
  75% done.
  88% done.
 100% done.
 Fitting and assembly step of exchange...
 CPU time [min]:     2.497                   Wall time [min]:     0.054
 
 Second step of Coulomb...
   1% done.
  14% done.
  27% done.
  43% done.
  62% done.
  75% done.
  88% done.
 100% done.
 CPU time [min]:     2.539                   Wall time [min]:     0.055
 
 Gradient norm:      4.8479E-09
 RMS of [F,P]:                                         0.00000000005771
 RMS of difference density:                            0.00000000013773
 Gap [au]:  0.45415584
 ALPHA OCC:   5
 BETA  OCC:   5
 
 ***HARTREE-FOCK ENERGY IN STEP  12 IS        -56.2225026568950739 [AU]
 
 Step comparison  Energy Drift [au]  DIIS error drift  Gradient drift
       11            4.2633E-14         1.7081E-10       1.5567E-08
 ======================================================================
 
 SUCCESS...
 THE SCF ITERATION HAS CONVERGED!
 
                   A   
 FINAL ALPHA OCC:   5
 FINAL BETA  OCC:   5
 
 ***FINAL HARTREE-FOCK ENERGY:        -56.2225026568950739 [AU]
 
 Orbital energies [au]:
      Irrep         Alpha          Beta
    1   A        -15.544729     -15.544729
    2   A         -1.133942      -1.133942
    3   A         -0.623507      -0.623507
    4   A         -0.623475      -0.623475
    5   A         -0.427648      -0.427648
 
    6   A          0.026508       0.026508
    7   A          0.043769       0.043769
    8   A          0.043769       0.043769
    9   A          0.098150       0.098150
   10   A          0.131665       0.131665
   11   A          0.139410       0.139410
   12   A          0.139410       0.139410
   13   A          0.183211       0.183211
   14   A          0.183213       0.183213
   15   A          0.188377       0.188377
   16   A          0.188379       0.188379
   17   A          0.209468       0.209468
   18   A          0.283032       0.283032
   19   A          0.293037       0.293037
   20   A          0.297303       0.297303
   21   A          0.297303       0.297303
   22   A          0.352123       0.352123
   23   A          0.381140       0.381140
   24   A          0.381150       0.381150
   25   A          0.388485       0.388485
   26   A          0.388487       0.388487
   27   A          0.422399       0.422399
   28   A          0.473740       0.473740
   29   A          0.473743       0.473743
   30   A          0.558863       0.558863
   31   A          0.558870       0.558870
   32   A          0.559951       0.559951
   33   A          0.593086       0.593086
   34   A          0.683580       0.683580
   35   A          0.683583       0.683583
   36   A          0.698046       0.698046
   37   A          0.698510       0.698510
   38   A          0.716532       0.716532
   39   A          0.716532       0.716532
   40   A          0.749951       0.749951
   41   A          0.777384       0.777384
   42   A          0.777404       0.777404
   43   A          0.777811       0.777811
   44   A          0.828540       0.828540
   45   A          0.828546       0.828546
   46   A          0.847300       0.847300
   47   A          0.858401       0.858401
   48   A          0.858405       0.858405
   49   A          0.873167       0.873167
   50   A          0.873178       0.873178
   51   A          0.980741       0.980741
   52   A          1.015842       1.015842
   53   A          1.015854       1.015854
   54   A          1.134240       1.134240
   55   A          1.225088       1.225088
   56   A          1.225091       1.225091
   57   A          1.350651       1.350651
   58   A          1.350658       1.350658
   59   A          1.354602       1.354602
   60   A          1.369945       1.369945
   61   A          1.372372       1.372372
[...]
  158    1     0.994352        3
  159    2     0.985858        2    3
  160    2     0.999954        1    3
  161    2     0.993840        2    3
  162    1     0.996660        3
  163    1     0.998526        3
  164    1     0.999675        3
  165    1     0.998523        3
  166    1     0.996915        3
  167    1     0.997273        3
  168    1     0.996708        3
  169    2     0.989429        3    4
  170    1     0.991281        3
  171    1     0.995911        3
  172    1     0.992735        3
  173    2     0.999698        1    3
  174    1     0.984876        3
  175    2     0.988889        2    3
  176    2     0.999869        1    4
  177    2     0.999884        1    4
  178    2     0.999872        1    4
  179    2     0.999691        1    4
  180    1     0.993848        4
  181    1     0.997893        4
  182    1     0.998579        4
  183    1     0.998630        4
  184    1     0.985208        4
  185    1     0.995440        4
  186    1     0.989232        4
  187    2     0.999857        1    4
  188    2     0.999128        1    4
  189    2     0.985412        3    4
  190    2     0.999905        1    4
  191    2     0.998735        1    4
  192    2     0.998765        1    4
  193    1     0.998849        4
  194    1     0.998973        4
  195    1     0.999305        4
  196    1     0.999828        4
  197    1     0.999378        4
  198    2     0.999517        1    4
  199    2     0.999959        1    4
  200    1     0.988685        4
  201    1     0.997325        4
  202    1     0.984373        4
  203    2     0.998098        1    4
  204    2     0.999954        1    4
  205    2     0.985852        3    4
  206    1     0.994925        4
  207    2     0.994422        2    4
  208    1     0.996658        4
  209    1     0.998653        4
  210    1     0.996870        4
  211    1     0.998521        4
  212    1     0.999717        4
  213    1     0.997142        4
  214    1     0.996707        4
  215    2     0.989431        2    4
  216    1     0.991917        4
  217    2     0.999694        1    4
  218    1     0.992739        4
  219    1     0.996245        4
  220    1     0.984203        4
  221    2     0.988891        3    4
 CPU time [min]:     0.094                   Wall time [min]:     0.004
 
 C1 point group was detected
 
 Constructing orbital domains...
 CPU time [min]:     0.149                   Wall time [min]:     0.005
 
 Dimensions of the primary domains:     Minimum / Average / Maximum
 
 Number of atoms in domain:                   4       4.0         4
 Number of atoms in occ BP domain:            1       1.8         2
 Number of atoms in PAO BP domain:            1       1.4         4
 Number of atomic orbitals:                 218     218.0       218
 Number of PAOs:                             79     113.5       125
 
 Prescreening pairs...
 CPU time [min]:     0.169                   Wall time [min]:     0.006
 
 Occupied LMO domain definition with Boughton-Pulay completeness:    0.9999500000
 
   MO  Natoms  Completeness   Atoms
    1    4     1.000000        1    2    3    4
    2    4     1.000000        1    2    3    4
    3    4     1.000000        1    2    3    4
    4    4     1.000000        1    2    3    4
 
 Executing the Boughton-Pulay algorithm...
  with occ MO completeness:    0.9850000000
 
   MO  Natoms  Completeness   Atoms
    1    1     0.999820        1
    2    2     0.999927        1    4
    3    2     0.999927        1    3
    4    2     0.999927        1    2
 CPU time [min]:     0.198                   Wall time [min]:     0.006
 
 Dimensions of the occupied LMO domains:  Minimum / Average / Maximum
 
 Number of atoms in domain:                   4       4.0         4
 Number of atomic orbitals:                 218     218.0       218
 
 Total number of pairs:   6
 Number of distant pairs: 0 (0.0%)
 Sum of multipole based pair energies:      0.0000000000
 
 CPU time [min]:     0.205                   Wall time [min]:     0.006
 Number of strong pairs: 6 (100.0%)
 chtol from minp:   1.000000000000000E-006
        1.85 MB memory is used for domain independent quantities
 
 Calculating the contribution of occupied LMOs...
    using local fitting domains
 
 MO:     1
 Number of atoms in domain:       4
    Number of atoms in PCD:       4
 Number of atomic orbitals:     218
 Number of atoms for local DF:    4
 Number of fitting functions:   408 (100.00%)
 Number of occupied orbitals:     4
 Number of virtual  orbitals:   213
 Number of Cholesky vectors:     10
 MP2 energy in ED [au]:          -0.065430967812
 Number of occupied LNOs:         4 (100.00%)
 Number of virtual  LNOs:       106  (49.77%)
 Number of Cholesky vectors:      9
 MP2 energy in LIS [au]:         -0.065297417760
 Correction for frozen LNO [au]: -0.000133550052     (0.204%)
 Number of NAFs:                298  (73.04%)
 CPU time [min]:     2.225                   Wall time [min]:     0.050
 

 Direct DF-CCSD(T) calculation
 
 Convergence criterion:  1.0E-05
 
 Number of occupied/virtual/auxiliary orbitals:     4   106   298
    120.34 MB is the minimal memory requirement for (T)
     51.32 MB is the minimal memory requirement for CCSD
 
 MP2 correlation energy [au]:       -0.249108532063
 
 LMP2 domain correlation energy contribution [au]:       -0.065296036442
 
 CPU time [min]:     2.288                   Wall time [min]:     0.051
 
 
 Starting CCSD iterations...
 
                     Residual norm       Correlation Energy
 Iteration  1        0.155069612495       -0.253819416772
 Iteration  2        0.036658885197       -0.259141036024
 Iteration  3        0.012070995500       -0.260007272318
 Iteration  4        0.002318304491       -0.259999531676
 Iteration  5        0.000667458746       -0.260021134905
 Iteration  6        0.000217273258       -0.260019644251
 Iteration  7        0.000056094413       -0.260019653616
 
 CCSD iteration has converged in  7 steps.
      542.31 MB memory was utilized by CCSD
 
 T1 diagnostic:      8.275E-03            D1 diagnostic:      1.644E-02
 
 T1 contribution [au]:                         0.000000000000
 CCSD correlation energy [au]:                -0.066939479577
 
 CPU time [min]:     2.875                   Wall time [min]:     0.060
 
 Calculation of (T) correction...
 
 Laplace threshold, nquadmin:  1.00E-03   4
 Number of quadrature points:    4
 
      121.03 MB memory is utilized for (T)

 0%       25%       50%       75%       100%
 |---------|---------|---------|---------| 
 
 (T) correction [au]:                   -0.002479640298
 CCSD(T) correlation energy [au]:       -0.069419119875
 
 CPU time [min]:     3.182                   Wall time [min]:     0.065
 
 MO:     2
 Number of atoms in domain:       4
    Number of atoms in PCD:       4
 Number of atomic orbitals:     218
 Number of atoms for local DF:    4
 Number of fitting functions:   408 (100.00%)
 Number of occupied orbitals:     4
 Number of virtual  orbitals:   213
 Number of Cholesky vectors:     10
 MP2 energy in ED [au]:          -0.063048788898
 Number of occupied LNOs:         4 (100.00%)
 Number of virtual  LNOs:       105  (49.30%)
 Number of Cholesky vectors:      9
 MP2 energy in LIS [au]:         -0.062901655220
 Correction for frozen LNO [au]: -0.000147133678     (0.233%)
 Number of NAFs:                289  (70.83%)
 CPU time [min]:     5.019                   Wall time [min]:     0.105
 

 Direct DF-CCSD(T) calculation
 
 Convergence criterion:  1.0E-05
 
 Number of occupied/virtual/auxiliary orbitals:     4   105   289
    116.25 MB is the minimal memory requirement for (T)
     49.22 MB is the minimal memory requirement for CCSD
 
 MP2 correlation energy [au]:       -0.248334510112
 
 LMP2 domain correlation energy contribution [au]:       -0.062901127855
 
 CPU time [min]:     5.081                   Wall time [min]:     0.106
 
 
 Starting CCSD iterations...
 
                     Residual norm       Correlation Energy
 Iteration  1        0.156048552235       -0.253049877913
 Iteration  2        0.036405127970       -0.258432589671
 Iteration  3        0.011850809341       -0.259221278751
 Iteration  4        0.002252451376       -0.259228679826
 Iteration  5        0.000552304070       -0.259245932974
 Iteration  6        0.000173909661       -0.259245070652
 Iteration  7        0.000042714125       -0.259245138035
 
 CCSD iteration has converged in  7 steps.
      522.03 MB memory was utilized by CCSD
 
 T1 diagnostic:      8.164E-03            D1 diagnostic:      1.620E-02
 
 T1 contribution [au]:                         0.000000000000
 CCSD correlation energy [au]:                -0.065493305894
 
 CPU time [min]:     5.700                   Wall time [min]:     0.116
 
 Calculation of (T) correction...
 
 Laplace threshold, nquadmin:  1.00E-03   4
 Number of quadrature points:    4
 
      116.93 MB memory is utilized for (T)

 0%       25%       50%       75%       100%
 |---------|---------|---------|---------| 
 
 (T) correction [au]:                   -0.002153525154
 CCSD(T) correlation energy [au]:       -0.067646831048
 
 CPU time [min]:     6.017                   Wall time [min]:     0.121
 
 MO:     3
 Number of atoms in domain:       4
    Number of atoms in PCD:       4
 Number of atomic orbitals:     218
 Number of atoms for local DF:    4
 Number of fitting functions:   408 (100.00%)
 Number of occupied orbitals:     4
 Number of virtual  orbitals:   213
 Number of Cholesky vectors:     10
 MP2 energy in ED [au]:          -0.063049989042
 Number of occupied LNOs:         4 (100.00%)
 Number of virtual  LNOs:       105  (49.30%)
 Number of Cholesky vectors:      9
 MP2 energy in LIS [au]:         -0.062902836863
 Correction for frozen LNO [au]: -0.000147152179     (0.233%)
 Number of NAFs:                289  (70.83%)
 CPU time [min]:     7.755                   Wall time [min]:     0.160
 

 Direct DF-CCSD(T) calculation
 
 Convergence criterion:  1.0E-05
 
 Number of occupied/virtual/auxiliary orbitals:     4   105   289
    116.25 MB is the minimal memory requirement for (T)
     49.22 MB is the minimal memory requirement for CCSD
 
 MP2 correlation energy [au]:       -0.248334065921
 
 LMP2 domain correlation energy contribution [au]:       -0.062902310574
 
 CPU time [min]:     7.818                   Wall time [min]:     0.161
 
 
 Starting CCSD iterations...
 
                     Residual norm       Correlation Energy
 Iteration  1        0.156258776687       -0.253049438009
 Iteration  2        0.036438051193       -0.258431915398
 Iteration  3        0.011852549521       -0.259221069220
 Iteration  4        0.002253017742       -0.259228116840
 Iteration  5        0.000552873662       -0.259245493758
 Iteration  6        0.000174049074       -0.259244656780
 Iteration  7        0.000042752333       -0.259244717012
 
 CCSD iteration has converged in  7 steps.
      522.03 MB memory was utilized by CCSD
 
 T1 diagnostic:      8.164E-03            D1 diagnostic:      1.620E-02
 
 T1 contribution [au]:                         0.000000000000
 CCSD correlation energy [au]:                -0.065494815109
 
 CPU time [min]:     8.401                   Wall time [min]:     0.171
 
 Calculation of (T) correction...
 
 Laplace threshold, nquadmin:  1.00E-03   4
 Number of quadrature points:    4
 
      116.93 MB memory is utilized for (T)

 0%       25%       50%       75%       100%
 |---------|---------|---------|---------| 
 
 (T) correction [au]:                   -0.002153624152
 CCSD(T) correlation energy [au]:       -0.067648439261
 
 CPU time [min]:     8.716                   Wall time [min]:     0.176
 
 MO:     4
 Number of atoms in domain:       4
    Number of atoms in PCD:       4
 Number of atomic orbitals:     218
 Number of atoms for local DF:    4
 Number of fitting functions:   408 (100.00%)
 Number of occupied orbitals:     4
 Number of virtual  orbitals:   213
 Number of Cholesky vectors:     10
 MP2 energy in ED [au]:          -0.063048982490
 Number of occupied LNOs:         4 (100.00%)
 Number of virtual  LNOs:       105  (49.30%)
 Number of Cholesky vectors:      9
 MP2 energy in LIS [au]:         -0.062901845151
 Correction for frozen LNO [au]: -0.000147137339     (0.233%)
 Number of NAFs:                289  (70.83%)
 CPU time [min]:    10.493                   Wall time [min]:     0.214
 

 Direct DF-CCSD(T) calculation
 
 Convergence criterion:  1.0E-05
 
 Number of occupied/virtual/auxiliary orbitals:     4   105   289
    116.25 MB is the minimal memory requirement for (T)
     49.22 MB is the minimal memory requirement for CCSD
 
 MP2 correlation energy [au]:       -0.248334423315
 
 LMP2 domain correlation energy contribution [au]:       -0.062901317451
 
 CPU time [min]:    10.554                   Wall time [min]:     0.215
 
 
 Starting CCSD iterations...
 
                     Residual norm       Correlation Energy
 Iteration  1        0.155986743064       -0.253049792646
 Iteration  2        0.036395382682       -0.258432581640
 Iteration  3        0.011850296055       -0.259221136552
 Iteration  4        0.002252293619       -0.259228640133
 Iteration  5        0.000552147452       -0.259245857207
 Iteration  6        0.000173872823       -0.259244987504
 Iteration  7        0.000042704366       -0.259245056953
 
 CCSD iteration has converged in  7 steps.
      522.03 MB memory was utilized by CCSD
 
 T1 diagnostic:      8.164E-03            D1 diagnostic:      1.620E-02
 
 T1 contribution [au]:                         0.000000000000
 CCSD correlation energy [au]:                -0.065493565429
 
 CPU time [min]:    11.134                   Wall time [min]:     0.224
 
 Calculation of (T) correction...
 
 Laplace threshold, nquadmin:  1.00E-03   4
 Number of quadrature points:    4
 
      116.93 MB memory is utilized for (T)

 0%       25%       50%       75%       100%
 |---------|---------|---------|---------| 
 
 (T) correction [au]:                   -0.002153542039
 CCSD(T) correlation energy [au]:       -0.067647107468
 
 CPU time [min]:    11.450                   Wall time [min]:     0.230
 
 **********************************************************************
 Dimensions of the extended domains:    Minimum / Average / Maximum
 
 Number of atoms in domain:                   4       4.0         4
 Number of atomic orbitals:                 218     218.0       218
 Number of fitting functions:               408     408.0       408
 Number of occupied localized MOs:            4       4.0         4
 Number of PAOs:                            213     213.0       213
 Number of occupied LNOs:                     4       4.0         4
 Number of virtual  LNOs:                   105     105.2       106
 Number of NAFs:                            289     291.2       298
 
 **********************************************************************
 Distant (and weak) pair contributions, corrections
 
 Sum of pair energies [au]:                     0.000000000000    (0.000%)
 Sum of energy corrections [au]:               -0.000574973249    (0.226%)
 Pair energies + LNO corrections [au]:         -0.000574973249
 Sum of LMP2 contributions [au]:               -0.254578728242
 
 **********************************************************************
  Time of manipulations in the EDs:      max CPU/Wall [s]  all CPU/Wall [min]
 
 PD construction & multipole pair E      12.21     0.23     0.20     0.00
 Construct MO basis of the ED             1.99     0.03     0.12     0.00
 (mu,nu|P) evaluation & trf 2 (ai|P)      8.99     0.14     0.52     0.01
 Evaluate MP2 energy of the ED            0.27     0.00     0.02     0.00
 Transformations to the LNO basis         1.86     0.03     0.12     0.00
 Build W_PQ (Jai or Jpi part)             0.75     0.02     0.02     0.00
 Evaluate MP2 energy of the LIS           0.15     0.00     0.01     0.00
 (mu,nu|P) evaluation & trf 2 J(abQ)     90.29     1.80     5.41     0.11
 Total of the above for all EDs         104.30     2.03     6.22     0.12
 
 **********************************************************************
 Maximum memory requirement [MB]:       
 
 PD construction & multipole pair E          4.2
 AO integral evaluation in the EDs        3002.4
 (mu,nu|P) evaluation & trf 2 (aI|P)      3034.0
 Evaluate MP2 energy in the EDs             20.0
 Transformation to the LNO basis             9.8
 (mu,nu|P) to Jab transformation          3009.0
 Evaluate MP2 energy in the LIS             12.7
 Minimum requirement for LIS CCSD           51.3
 Actually allocated  for LIS CCSD          542.3
 Minimum requirement for LIS (T)           120.3
 Actually allocated  for LIS (T)           121.0
 
 ======================================================================
 ======================================================================
 
 
 
 ======================================================================
 ======================================================================
 
 Final local CC results:
 
 Minimum number of correlated electrons:         8       (100.0%)
 Maximum number of correlated electrons:         8       (100.0%)
 Average number of correlated electrons:         8.0     (100.0%)
 Minimum number of correlated orbitals:        109       ( 50.2%)
 Maximum number of correlated orbitals:        110       ( 50.7%)
 Average number of correlated orbitals:        109.2     ( 50.3%)
 
 CPU time for integral calculations [min]:                  0.426
 Wall time for integral calculations [min]:                 0.009
 
 CPU time for SCF calculation [min]:                        2.723
 Wall time for SCF calculation [min]:                       0.089
 
 CPU time for orbital localization [min]:                   0.220
 Wall time for orbital localization [min]:                  0.037
 
 CPU time for integral transformations [min]:               7.642
 Wall time for integral transformations [min]:              0.167
 
 Reference energy [au]:                                   -56.222502656895
 
 LMP2 correlation energy [au]:                             -0.254578728242
 Total LMP2 energy [au]:                                  -56.477081385137
 
 Total MP2 correction for dropped NAFs [au]:               -0.000002962671
 Total MP2 correction [au]:                                -0.000577935920
 
 CPU time for CCSD calculations [min]:                      2.578
 Total CPU time for CCSD [min]:                            13.588
 Wall time for CCSD calculations [min]:                     0.042
 Total wall time for CCSD [min]:                            0.344
 
 CCSD correlation energy [au]:                             -0.263421166010
 Total CCSD energy [au]:                                  -56.485923822905
 CCSD correlation energy + 0.5 MP2 corrections [au]:       -0.263710133970
 Total LNO-CCSD energy with MP2 corrections [au]:         -56.486212790865
 
 CPU time for (T) corrections [min]:                        1.254
 Total CPU time for CCSD(T) [min]:                         14.843
 Wall time for (T) corrections [min]:                       0.022
 Total wall time for CCSD(T) [min]:                         0.365
 
 Total (T) correlation energy contribution [au]:           -0.008940331642
 Total (T) correlation energy+0.5 MP2 correction [au]:     -0.009229299602
 CCSD(T) correlation energy [au]:                          -0.272361497652
 Total CCSD(T) energy [au]:                               -56.494864154547
 CCSD(T) correlation energy + MP2 corrections [au]:        -0.272939433572
 Total LNO-CCSD(T) energy with MP2 corrections [au]:      -56.495442090467
 
 ======================================================================
 ======================================================================
 
 ************************ 2026-02-26 16:03:08 *************************
                      Normal termination of mrcc.
 **********************************************************************
