 **********************************************************************
                          MRCC program system
 **********************************************************************
 
                              Written by
     Mihaly Kallay, Peter R. Nagy, David Mester, Laszlo Gyevi-Nagy,
        Jozsef Csoka, P. Bernat Szabo, Zoltan Rolik, Gyula Samu,
     Jozsef Csontos, Bence Hegely, Adam Ganyecz, Istvan Ladjanszki,
       Lorant Szegedy, Bence Ladoczki, Klara Petrov, Mate Farkas,
                    Pal D. Mezei, and Reka A. Horvath
 
        Department of Physical Chemistry and Materials Science
            Budapest University of Technology and Economics
                  Budapest P.O.Box 91, H-1521 Hungary
 
                              www.mrcc.hu
 
                     Release date: August 28, 2023

 ************************ 2026-02-26 16:04:07 *************************
 Executing minp...

 Reading input from MINP...
 
 Input file:
 
charge=0
mult=1
calc=DF-MP2
basis=aug-cc-pV5Z
symm=off
verbosity=3
unit=angs
scfalg=locfit1
scfmaxit=200
scftol=8
basis_sm=def2-SVP
scfiguess=small
mem=46GB
geom=xyz
4

N      1.04470516527    1.04467805385    1.04472620470
H      1.86198065727    1.39631551807    0.53263274880
H      1.39638040304    0.53260276511    1.86208371977
H      0.53256262530    1.86191282917    1.39633599251
 
 
 Checking keyword combinations...
 
 Keywords:
 
 active=none
 agrid=ld0006-ld0590
 agrid_pssp=ld0006-ld0194
 agrid_pssp_sm=ld0006-ld0074
 basis=aug-cc-pv5z
 basis_sm=def2-svp
 basopt=off
 bfbasis=none
 bfgsmem=10
 bfgstol=1.0d-3
 boysalg=jacobi
 bpcompo=0.985
 bpcompv=0.98
 bpdfo=0.985
 bpocc=0.985
 bppdo=0.985
 bppdv=0.98
 bpedo=0.985
 bpedv=0.98
 calc=mp2
 ccmaxit=50
 ccprog=mrcc
 ccsdalg=disk
 ccsdmkl=seq
 ccsdrest=off
 ccsdthreads=2
 cctol=6
 charge=0
 cialg=disk
 ciguess=off
 cmpgrp=auto
 comprest=off
 coord_sys=ric
 core=frozen
 corembed=off
 csapprox=off
 cvs=off
 dboc=off
 delocsomofact=
 dendec=cholesky
 dens=0
 denscorr=0
 dfalg=lineq
 dfbasis_cab=none
 dfbasis_cor=auto
 dfbasis_scf=auto
 dfbasis_scf_sm=auto
 dfintran=drpa
 dft=off
 dhexc=adc(2)
 diag=david
 docc=
 domrad=10.d0
 drpaalg=fit
 dual=off
 dual_df=off
 ecp=auto
 edisp=off
 edisp_embed=off
 embed=off
 epairestfact=off
 epairscale=1.d0
 etemp=300
 epert=none
 eps=
 espcharge=off
 excrad=1.0
 excrad_fin=0.100000000D-02
 fitting=coulomb
 fmm=off
 fmmord=8
 fnonorb=
 freq=off
 gamma=1.4d0
 gauss=spher
 geom=xyz
 gopt=off
 ghost=none
 gtol=7
 grdens=off
 grid=auto
 grid_sm=auto
 gridbatch_cos=2000
 grtol=10
 guido_ct=off
 hamilton=dc
 iface=none
 intalg=auto
 ip_ea=off
 itol=12
 laptol=1.d-2
 lccoporder=trffirst
 lcorthr=normal
 lccrest=off
 ldfgrad_tol=8
 lmp2dens=on
 lnoepso=0.d0
 lnoepsv=1e-6
 localcc=off
 localcorrsymm=off
 locintrf=disk
 mact=
 maxact=off
 maxdim=200
 maxex=0
 maxmicroit=100
 mcscfiguess=hf
 mem=46gb
 mmprog=
 molden=on
 mpitasks=1
 mulmet=0
 mult=1
 nab=off
 nacto=0
 nactv=0
 naf_amp=3.16d-3
 naf_cor=off
 naf_f12=off
 naf_scf=off
 nafalg=albe
 nafdens=off
 naftyp=
 nchol=auto
 ndeps=1e-3
 nstate=1
 nsing=0
 nto=off
 ntrip=0
 num_grad=off
 occ=
 occri=off
 oniom=off
 oniom_eechg=off
 oniom_pcm=off
 oniom_qcorr=off
 optalg=
 optmaxit=50
 optetol=1e-6
 optex=0
 optgtol=1e-4
 optstol=1e-3
 orblocc=off
 orbloce=off
 orbloco=off
 orblocv=off
 orblocguess=cholesky
 osveps=1e-3
 ovirt=off
 ovltol=1e-7
 ovosnorb=80.0
 pao_subsys_tol=1e-3
 pcm=off
 popul=off
 pressure=100000
 pssp=off
 ptfreq=0.0
 ptthreads=2
 qmreg=
 qmmm=off
 qro=off
 qscf=off
 redcost_exc=off
 redcost_tddft=off
 refdet=none
 rest=0
 rgrid=log3
 rism=off
 rohfcore=semicanonical
 rohftype=semicanonical
 scfalg=locfit1
 scf_conv=auto
 scfdamp=0.0d0
 scfdamp_mode=off
 scfdamp_end=200
 scfdamp_dampstep=0.d0
 scfdamp_dtol=0.0d0
 scfdamp_maxfact=0.0d0
 scfdamp_minfact=0.0d0
 scfdiis=on
 scfdiis_dtol=0.0d0
 scfdiis_end=200
 scfdiis_start=2
 scfdiis_step=1
 scfdiis_watch=off
 scfdiis_wrange=10
 scfdiis_wlimit=5
 scfdiis_delmax=2
 scfdtol=9
 scfext=10
 scfguessdens=
 scfiguess=small
 scfloc=pm
 scflshift=0.20
 scflshift_end=8
 scflshift_dtol=0.0
 scflshift_gaptol=0.20
 scfmaxit=200
 scftype=
 scftol=8
 scspe=1.d0
 scsph=1.d0
 scsps=1.2d0
 scsps_t=1.2d0
 scspt=0.33333333333333
 scspt_t=0.33333333333333
 scspv=1.d0
 spairtol=1e-4
 sqmprog=
 subminp=top
 symm=0
 talg=occ
 temp=298.15
 test=off
 theodore=off
 tlmo=0.999
 tpao=0.94
 tprint=off
 uncontract=off
 unit=angs
 usedisk=2
 verbosity=3
 wpairtol=0.100000000E-05
 
 Calculating integrals for small-basis SCF...

 ************************ 2026-02-26 16:04:07 *************************
 Executing integ...

 Allocation of 46.0 Gbytes of memory...
 
 
 Number of atoms:                  4
 Charge:                           0
 Number of electrons:             10
 Number of core electrons:         2
 Spin multiplicity:                1
 
                 Cartesian coordinates [bohr]      Atomic mass [AMU]  Z
   1  N     1.97420664    1.97415541    1.97424640    14.003074       7
   2  H     3.51863349    2.63865391    1.00653002     1.007825       1
   3  H     2.63877653    1.00647336    3.51882825     1.007825       1
   4  H     1.00639751    3.51850532    2.63869260     1.007825       1
 
 This molecule is an asymmetric top.
 
 Rotational constants [cm-1]: 
      9.725611553639      9.725262897102      6.126632394896
 
 Point group: C1  
 Computational point group: C1  
 
 Cartesian coordinates in standard orientation [bohr]
   1  N     0.00001974   -0.00000801   -0.12725315
   2  H     1.29159153    1.25758525    0.58939811
   3  H    -1.73502610    0.48986803    0.58928866
   4  H     0.44316034   -1.74734193    0.58941309
 
 Nuclear repulsion energy [au]:         11.785797783990
 
Warning: for H atoms in the case of dfbasis_scf=auto the AO basis is set as dfbasis_scf instead of def2-qzvp(pd)-ri-jk because the AO basis is larger. Set the dfbasis_scf=def2-qzvp(pd)-ri-jk in MINP if that is desired.
 
 
 Basis set information:
 
 Maximum angular momentum: g
 Maximum number of contracted Gaussians:   10
 Maximum number of primitive Gaussians:    14
 Spherical harmonic GTOs are used.
 
 
 Conventional basis set:
 
   1  N  def2-svp [ 7s 4p 1d | 3s 2p 1d ]
   2  H  def2-svp [ 4s 1p | 2s 1p ]
   3  H  def2-svp [ 4s 1p | 2s 1p ]
   4  H  def2-svp [ 4s 1p | 2s 1p ]
 
 Basis functions:
            1             2             3             4             5             6             7             8             9            10
    0    1N1s          1N2s          1N3s          1N1pz         1N1py         1N1px         1N2pz         1N2py         1N2px         1N1d-2    
    1    1N1d-1        1N1d0         1N1d+1        1N1d+2        2H1s          2H2s          2H1pz         2H1py         2H1px         3H1s      
    2    3H2s          3H1pz         3H1py         3H1px         4H1s          4H2s          4H1pz         4H1py         4H1px     
 
 Maximum number of basis functions per shell:    6
 Total number of basis functions:     29
 
 
 Fitting basis set for the SCF calculation:
 
   1  N  def2-qzvpp-ri-jk [ 14s 10p 6d 2f 1g | 10s 8p 4d 2f 1g ]
   2  H  def2-qzvpp [ 7s 3p 2d 1f | 4s 3p 2d 1f ]
   3  H  def2-qzvpp [ 7s 3p 2d 1f | 4s 3p 2d 1f ]
   4  H  def2-qzvpp [ 7s 3p 2d 1f | 4s 3p 2d 1f ]
 
 Basis functions:
            1             2             3             4             5             6             7             8             9            10
    0    1N1s          1N2s          1N3s          1N4s          1N5s          1N6s          1N7s          1N8s          1N9s          1N10s     
    1    1N1pz         1N1py         1N1px         1N2pz         1N2py         1N2px         1N3pz         1N3py         1N3px         1N4pz     
    2    1N4py         1N4px         1N5pz         1N5py         1N5px         1N6pz         1N6py         1N6px         1N7pz         1N7py     
    3    1N7px         1N8pz         1N8py         1N8px         1N1d-2        1N1d-1        1N1d0         1N1d+1        1N1d+2        1N2d-2    
    4    1N2d-1        1N2d0         1N2d+1        1N2d+2        1N3d-2        1N3d-1        1N3d0         1N3d+1        1N3d+2        1N4d-2    
    5    1N4d-1        1N4d0         1N4d+1        1N4d+2        1N1f-3        1N1f-2        1N1f-1        1N1f0         1N1f+1        1N1f+2    
    6    1N1f+3        1N2f-3        1N2f-2        1N2f-1        1N2f0         1N2f+1        1N2f+2        1N2f+3        1N1g-4        1N1g-3    
    7    1N1g-2        1N1g-1        1N1g0         1N1g+1        1N1g+2        1N1g+3        1N1g+4        2H1s          2H2s          2H3s      
    8    2H4s          2H1pz         2H1py         2H1px         2H2pz         2H2py         2H2px         2H3pz         2H3py         2H3px     
    9    2H1d-2        2H1d-1        2H1d0         2H1d+1        2H1d+2        2H2d-2        2H2d-1        2H2d0         2H2d+1        2H2d+2    
   10    2H1f-3        2H1f-2        2H1f-1        2H1f0         2H1f+1        2H1f+2        2H1f+3        3H1s          3H2s          3H3s      
   11    3H4s          3H1pz         3H1py         3H1px         3H2pz         3H2py         3H2px         3H3pz         3H3py         3H3px     
   12    3H1d-2        3H1d-1        3H1d0         3H1d+1        3H1d+2        3H2d-2        3H2d-1        3H2d0         3H2d+1        3H2d+2    
   13    3H1f-3        3H1f-2        3H1f-1        3H1f0         3H1f+1        3H1f+2        3H1f+3        4H1s          4H2s          4H3s      
   14    4H4s          4H1pz         4H1py         4H1px         4H2pz         4H2py         4H2px         4H3pz         4H3py         4H3px     
   15    4H1d-2        4H1d-1        4H1d0         4H1d+1        4H1d+2        4H2d-2        4H2d-1        4H2d0         4H2d+1        4H2d+2    
   16    4H1f-3        4H1f-2        4H1f-1        4H1f0         4H1f+1        4H1f+2        4H1f+3    
 
 Maximum number of basis functions per shell:   24
 Total number of basis functions:    167
 
 
 Initializing the SAD routines for the initial guess...
 Checking the files required for the initial guess...
 Density files have not been found for the initial guess.
 Generating SCFDENSITIES.N.def2-svp.0
 Generating SCFDENSITIES.H.def2-svp.0
 CPU time [min]:     0.217                   Wall time [min]:     0.131
 
 Character table for point group C1:
 
          E  
    A     1
 
 Number of basis functions per irrep:
    A      29
 
 
 Calculation of overlap integrals...
 CPU time [min]:     0.223                   Wall time [min]:     0.131
 
 Calculation of the square root of the overlap matrix...
 Minimum eigenvalue of the overlap matrix: 0.299700E-01
 CPU time [min]:     0.234                   Wall time [min]:     0.131
 
 Calculation of kinetic energy integrals...
 CPU time [min]:     0.234                   Wall time [min]:     0.131
 Calculation of dipole moment integrals...
 CPU time [min]:     0.235                   Wall time [min]:     0.131
 Calculation of nuclear attraction integrals...
 CPU time [min]:     0.236                   Wall time [min]:     0.131
 
 Calculation of prescreening integrals...
 CPU time [min]:     0.241                   Wall time [min]:     0.131
 
 Calculation of two-center Coulomb integrals...
   4% done.
  17% done.
  29% done.
  41% done.
  52% done.
  67% done.
  81% done.
  92% done.
 100% done.
 CPU time [min]:     0.252                   Wall time [min]:     0.132
 
 Cholesky decomposition of the two-center matrix...
 Reciprocal of the condition number:  0.167239E-04
 CPU time [min]:     0.260                   Wall time [min]:     0.132
 
 
 Running small-basis SCF...

 ************************ 2026-02-26 16:04:15 *************************
 Executing scf...

 @scfsetup: integrals calculated directly
            mrcc/integ direct run
 @scfsetup: calculating on full matrices
            not using symmetry adapted basis
 @scfsetup: diis switched on
 @scfsetup: number of steps to extrapolate from  10
 @scfsetup: tolerance in energy deviation    0.100000E-07
            tolerance in density deviation    0.100000E-08
 @scfsetup: maximum number of iterations: 200
 @scfsetup: restricted closed shell hf calc
 @scfsetup: starting scf from superposition of atomic densities
 @scfsetup: occupation set:
            from initial orbitals
 @scfsetup: Parameter-set for SCF acceleration: normal
 @scfsetup: diis runs from iteration:   2
 @scfsetup: diis runs to iteration: 200
 @scfsetup: diis runs in every iteration
 @scfsetup: diiswatch is disabled                   
 @scfsetup: diis dtol criteria to switch on:      0.0000E+00
           (or the iteration number below is reached)
 @scfsetup: static damping scheme
            iteration step criteria to turn damping off: 3
 @scfsetup: dynamic level shifting
            tolarance in HOMO-LUMO gap:  0.200
            tolarance in density deviation:     0.0000E+00
            iteration step criteria to turn level shifting off: 8
 Allocation of 46.0 Gbytes of memory...
 ======================================================================
 ITERATION STEP   1
 CPU time [min]:     0.013                   Wall time [min]:     0.011
 

 SCF control                  : initial
 Damping factor/level shift   : 0.000/0.200
 DIIS [start/end/frequency]   :   2 /200 /  1

 Constructing Fock-matrix...
 
 Pipek-Mezey localization...
 Step  Convergence
   1   1.011944187054
   2   0.043156062444
   3   0.000026966662
   4   0.000000024891
   5   0.000000000597
 CPU time [min]:     0.040                   Wall time [min]:     0.012
 
 Constructing local fitting domains...
 Maximum number of atoms in fitting domains:    4
 Average number of atoms in fitting domains:    4.0
 
 First step of Coulomb + first step of exchange...
 Exchange contribution is evaluated for MOs 1 to 5.
   1% done.
  24% done.
  44% done.
  69% done.
  81% done.
 100% done.
 Fitting and assembly step of exchange...
 CPU time [min]:     0.096                   Wall time [min]:     0.013
 
 Second step of Coulomb...
   1% done.
  24% done.
  44% done.
  69% done.
  81% done.
 100% done.
 CPU time [min]:     0.106                   Wall time [min]:     0.013
 
 Gradient norm:      2.3664E+00
 RMS of [F,P]:                                         0.07444276031761
 RMS of difference density:                            0.02720928658296
 Gap [au]:  0.68128128
 ALPHA OCC:   5
 BETA  OCC:   5
 
 ***HARTREE-FOCK ENERGY IN STEP   1 IS        -55.8598434686342316 [AU]
 ======================================================================
 ITERATION STEP   2
 CPU time [min]:     0.117                   Wall time [min]:     0.013
 

 SCF control                  : diis
 Damping factor/level shift   : 0.000/0.000
 DIIS [start/end/frequency]   :   2 /200 /  1

 Constructing Fock-matrix...
 
 Pipek-Mezey localization...
 Step  Convergence
   1   0.020418063681
   2   0.019555865947
   3   0.000001929309
   4   0.000000000553
 CPU time [min]:     0.143                   Wall time [min]:     0.013
 
 Constructing local fitting domains...
 Maximum number of atoms in fitting domains:    4
 Average number of atoms in fitting domains:    4.0
 
 First step of Coulomb + first step of exchange...
 Exchange contribution is evaluated for MOs 1 to 5.
   1% done.
  24% done.
  44% done.
  69% done.
  81% done.
 100% done.
 Fitting and assembly step of exchange...
 CPU time [min]:     0.195                   Wall time [min]:     0.014
 
 Second step of Coulomb...
   1% done.
  24% done.
  44% done.
  69% done.
  81% done.
 100% done.
 CPU time [min]:     0.205                   Wall time [min]:     0.014
 
 Gradient norm:      3.2144E-01
 DIIS is running in this iteration step.
 RMS of [F,P]:                                         0.01591305358201
 RMS of difference density:                            0.01259210863730
 Gap [au]:  0.55096003
 ALPHA OCC:   5
 BETA  OCC:   5
 
 ***HARTREE-FOCK ENERGY IN STEP   2 IS        -56.1230170647279749 [AU]
 
 Step comparison  Energy Drift [au]  DIIS error drift  Gradient drift
        1            2.6317E-01         5.8530E-02       2.0449E+00
        2            5.6123E+01         1.0000E-09       2.0449E+00
 ======================================================================
 ITERATION STEP   3
 CPU time [min]:     0.219                   Wall time [min]:     0.015
 

 SCF control                  : diis
 Damping factor/level shift   : 0.000/0.000
 DIIS [start/end/frequency]   :   2 /200 /  1

 Constructing Fock-matrix...
 
 Pipek-Mezey localization...
 Step  Convergence
   1   0.020202287721
   2   0.019599430848
   3   0.000001487783
   4   0.000000000139
 CPU time [min]:     0.245                   Wall time [min]:     0.015
 
 Constructing local fitting domains...
 Local fitting domains are unchanged.
 
 First step of Coulomb + first step of exchange...
 Exchange contribution is evaluated for MOs 1 to 5.
   1% done.
  24% done.
  44% done.
  69% done.
  81% done.
 100% done.
 Fitting and assembly step of exchange...
 CPU time [min]:     0.296                   Wall time [min]:     0.016
 
 Second step of Coulomb...
   1% done.
  24% done.
  44% done.
  69% done.
  81% done.
 100% done.
 CPU time [min]:     0.306                   Wall time [min]:     0.016
 
 Gradient norm:      1.2618E-01
 DIIS is running in this iteration step.
 RMS of [F,P]:                                         0.00757072561700
 RMS of difference density:                            0.00382840372987
 Gap [au]:  0.60146371
 ALPHA OCC:   5
 BETA  OCC:   5
 
 ***HARTREE-FOCK ENERGY IN STEP   3 IS        -56.1422980725252359 [AU]
 
 Step comparison  Energy Drift [au]  DIIS error drift  Gradient drift
        2            1.9281E-02         8.3423E-03       1.9526E-01
 ======================================================================
 ITERATION STEP   4
 CPU time [min]:     0.320                   Wall time [min]:     0.016
 

 SCF control                  : diis
 Damping factor/level shift   : 0.000/0.000
 DIIS [start/end/frequency]   :   2 /200 /  1

 Constructing Fock-matrix...
 
 Pipek-Mezey localization...
 Step  Convergence
   1   0.019950133796
   2   0.019608440604
   3   0.000001416461
   4   0.000000000122
 CPU time [min]:     0.347                   Wall time [min]:     0.017
 
 Constructing local fitting domains...
 Local fitting domains are unchanged.
 
 First step of Coulomb + first step of exchange...
 Exchange contribution is evaluated for MOs 1 to 5.
   1% done.
  24% done.
  44% done.
  69% done.
  81% done.
 100% done.
 Fitting and assembly step of exchange...
 CPU time [min]:     0.397                   Wall time [min]:     0.017
 
 Second step of Coulomb...
   1% done.
  24% done.
  44% done.
  69% done.
  81% done.
 100% done.
 CPU time [min]:     0.407                   Wall time [min]:     0.017
 
 Gradient norm:      2.4156E-02
 DIIS is running in this iteration step.
 RMS of [F,P]:                                         0.00093697741831
 RMS of difference density:                            0.00095507407499
 Gap [au]:  0.59396192
 ALPHA OCC:   5
 BETA  OCC:   5
 
 ***HARTREE-FOCK ENERGY IN STEP   4 IS        -56.1475427510162746 [AU]
 
 Step comparison  Energy Drift [au]  DIIS error drift  Gradient drift
        3            5.2447E-03         6.6337E-03       1.0202E-01
 ======================================================================
 ITERATION STEP   5
 CPU time [min]:     0.421                   Wall time [min]:     0.018
 

 SCF control                  : diis
 Damping factor/level shift   : 0.000/0.000
 DIIS [start/end/frequency]   :   2 /200 /  1

 Constructing Fock-matrix...
 
 Pipek-Mezey localization...
 Step  Convergence
   1   0.029913705926
   2   0.029553221396
   3   0.000002195587
   4   0.000000000864
 CPU time [min]:     0.447                   Wall time [min]:     0.018
 
 Constructing local fitting domains...
 Local fitting domains are unchanged.
 
 First step of Coulomb + first step of exchange...
 Exchange contribution is evaluated for MOs 1 to 5.
   1% done.
  24% done.
  44% done.
  69% done.
  81% done.
 100% done.
 Fitting and assembly step of exchange...
 CPU time [min]:     0.498                   Wall time [min]:     0.019
 
 Second step of Coulomb...
   1% done.
  24% done.
  44% done.
  69% done.
  81% done.
 100% done.
 CPU time [min]:     0.508                   Wall time [min]:     0.019
 
 Gradient norm:      2.0154E-03
 DIIS is running in this iteration step.
 RMS of [F,P]:                                         0.00015510984758
 RMS of difference density:                            0.00013120494954
 Gap [au]:  0.59421495
 ALPHA OCC:   5
 BETA  OCC:   5
 
 ***HARTREE-FOCK ENERGY IN STEP   5 IS        -56.1477030126657368 [AU]
 
 Step comparison  Energy Drift [au]  DIIS error drift  Gradient drift
        4            1.6026E-04         7.8187E-04       2.2141E-02
 ======================================================================
 ITERATION STEP   6
 CPU time [min]:     0.522                   Wall time [min]:     0.019
 

 SCF control                  : diis
 Damping factor/level shift   : 0.000/0.000
 DIIS [start/end/frequency]   :   2 /200 /  1

 Constructing Fock-matrix...
 
 Pipek-Mezey localization...
 Step  Convergence
   1   0.045264631267
   2   0.043806987501
   3   0.000009148705
   4   0.000000001742
 CPU time [min]:     0.548                   Wall time [min]:     0.020
 
 Constructing local fitting domains...
 Local fitting domains are unchanged.
 
 First step of Coulomb + first step of exchange...
 Exchange contribution is evaluated for MOs 1 to 5.
   1% done.
  24% done.
  44% done.
  69% done.
  81% done.
 100% done.
 Fitting and assembly step of exchange...
 CPU time [min]:     0.599                   Wall time [min]:     0.020
 
 Second step of Coulomb...
   1% done.
  24% done.
  44% done.
  69% done.
  81% done.
 100% done.
 CPU time [min]:     0.609                   Wall time [min]:     0.021
 
 Gradient norm:      3.2202E-04
 DIIS is running in this iteration step.
 RMS of [F,P]:                                         0.00001618926555
 RMS of difference density:                            0.00001213393178
 Gap [au]:  0.59420397
 ALPHA OCC:   5
 BETA  OCC:   5
 
 ***HARTREE-FOCK ENERGY IN STEP   6 IS        -56.1477062778576368 [AU]
 
 Step comparison  Energy Drift [au]  DIIS error drift  Gradient drift
        5            3.2652E-06         1.3892E-04       1.6934E-03
 ======================================================================
 ITERATION STEP   7
 CPU time [min]:     0.623                   Wall time [min]:     0.021
 

 SCF control                  : diis
 Damping factor/level shift   : 0.000/0.000
 DIIS [start/end/frequency]   :   2 /200 /  1

 Constructing Fock-matrix...
 
 Pipek-Mezey localization...
 Step  Convergence
   1   0.045337903810
   2   0.045824563123
   3   0.000071331935
   4   0.000000297819
   5   0.000000001309
   6   0.000000000001
   7   0.000000000000
 CPU time [min]:     0.649                   Wall time [min]:     0.021
 
 Constructing local fitting domains...
 Local fitting domains are unchanged.
 
 First step of Coulomb + first step of exchange...
 Exchange contribution is evaluated for MOs 1 to 5.
   1% done.
  24% done.
  44% done.
  69% done.
  81% done.
 100% done.
 Fitting and assembly step of exchange...
 CPU time [min]:     0.700                   Wall time [min]:     0.022
 
 Second step of Coulomb...
   1% done.
  24% done.
  44% done.
  69% done.
  81% done.
 100% done.
 CPU time [min]:     0.710                   Wall time [min]:     0.022
 
 Gradient norm:      7.7177E-05
 DIIS is running in this iteration step.
 RMS of [F,P]:                                         0.00000262781542
 RMS of difference density:                            0.00000286551457
 Gap [au]:  0.59419393
 ALPHA OCC:   5
 BETA  OCC:   5
 
 ***HARTREE-FOCK ENERGY IN STEP   7 IS        -56.1477063132997216 [AU]
 
 Step comparison  Energy Drift [au]  DIIS error drift  Gradient drift
        6            3.5442E-08         1.3561E-05       2.4484E-04
 ======================================================================
 ITERATION STEP   8
 CPU time [min]:     0.724                   Wall time [min]:     0.022
 

 SCF control                  : diis
 Damping factor/level shift   : 0.000/0.000
 DIIS [start/end/frequency]   :   2 /200 /  1

 Constructing Fock-matrix...
 
 Pipek-Mezey localization...
 Step  Convergence
   1   0.040074668422
   2   0.039412587410
   3   0.000148779325
   4   0.000000008986
   5   0.000000000009
   6   0.000000000000
 CPU time [min]:     0.751                   Wall time [min]:     0.023
 
 Constructing local fitting domains...
 Local fitting domains are unchanged.
 
 First step of Coulomb + first step of exchange...
 Exchange contribution is evaluated for MOs 1 to 5.
   1% done.
  24% done.
  44% done.
  69% done.
  81% done.
 100% done.
 Fitting and assembly step of exchange...
 CPU time [min]:     0.801                   Wall time [min]:     0.024
 
 Second step of Coulomb...
   1% done.
  24% done.
  44% done.
  69% done.
  81% done.
 100% done.
 CPU time [min]:     0.811                   Wall time [min]:     0.024
 
 Gradient norm:      1.0792E-05
 DIIS is running in this iteration step.
 RMS of [F,P]:                                         0.00000054055437
 RMS of difference density:                            0.00000096802676
 Gap [au]:  0.59419003
 ALPHA OCC:   5
 BETA  OCC:   5
 
 ***HARTREE-FOCK ENERGY IN STEP   8 IS        -56.1477063149529982 [AU]
 
 Step comparison  Energy Drift [au]  DIIS error drift  Gradient drift
        7            1.6533E-09         2.0873E-06       6.6385E-05
 ======================================================================
 ITERATION STEP   9
 CPU time [min]:     0.825                   Wall time [min]:     0.024
 

 SCF control                  : diis
 Damping factor/level shift   : 0.000/0.000
 DIIS [start/end/frequency]   :   2 /200 /  1

 Constructing Fock-matrix...
 
 Pipek-Mezey localization...
 Step  Convergence
   1   0.045663416354
   2   0.043442098743
   3   0.000004861737
   4   0.000000001340
   5   0.000000000002
   6   0.000000000000
 CPU time [min]:     0.851                   Wall time [min]:     0.024
 
 Constructing local fitting domains...
 Local fitting domains are unchanged.
 
 First step of Coulomb + first step of exchange...
 Exchange contribution is evaluated for MOs 1 to 5.
   1% done.
  24% done.
  44% done.
  69% done.
  81% done.
 100% done.
 Fitting and assembly step of exchange...
 CPU time [min]:     0.902                   Wall time [min]:     0.025
 
 Second step of Coulomb...
   1% done.
  24% done.
  44% done.
  69% done.
  81% done.
 100% done.
 CPU time [min]:     0.912                   Wall time [min]:     0.025
 
 Gradient norm:      3.1569E-06
 DIIS is running in this iteration step.
 RMS of [F,P]:                                         0.00000009591344
 RMS of difference density:                            0.00000029099195
 Gap [au]:  0.59418987
 ALPHA OCC:   5
 BETA  OCC:   5
 
 ***HARTREE-FOCK ENERGY IN STEP   9 IS        -56.1477063150560554 [AU]
 
 Step comparison  Energy Drift [au]  DIIS error drift  Gradient drift
        8            1.0306E-10         4.4464E-07       7.6352E-06
 ======================================================================
 ITERATION STEP  10
 CPU time [min]:     0.926                   Wall time [min]:     0.026
 

 SCF control                  : diis
 Damping factor/level shift   : 0.000/0.000
 DIIS [start/end/frequency]   :   2 /200 /  1

 Constructing Fock-matrix...
 
 Pipek-Mezey localization...
 Step  Convergence
   1   0.045339780737
   2   0.043878920741
   3   0.000011059546
   4   0.000000002571
   5   0.000000000001
 CPU time [min]:     0.952                   Wall time [min]:     0.026
 
 Constructing local fitting domains...
 Local fitting domains are unchanged.
 
 First step of Coulomb + first step of exchange...
 Exchange contribution is evaluated for MOs 1 to 5.
   1% done.
  24% done.
  44% done.
  69% done.
  81% done.
 100% done.
 Fitting and assembly step of exchange...
 CPU time [min]:     1.003                   Wall time [min]:     0.027
 
 Second step of Coulomb...
   1% done.
  24% done.
  44% done.
  69% done.
  81% done.
 100% done.
 CPU time [min]:     1.012                   Wall time [min]:     0.027
 
 Gradient norm:      6.3566E-07
 DIIS is running in this iteration step.
 RMS of [F,P]:                                         0.00000002162531
 RMS of difference density:                            0.00000007192092
 Gap [au]:  0.59418990
 ALPHA OCC:   5
 BETA  OCC:   5
 
 ***HARTREE-FOCK ENERGY IN STEP  10 IS        -56.1477063150609226 [AU]
 
 Step comparison  Energy Drift [au]  DIIS error drift  Gradient drift
        9            4.8672E-12         7.4288E-08       2.5213E-06
 ======================================================================
 ITERATION STEP  11
 CPU time [min]:     1.027                   Wall time [min]:     0.027
 

 SCF control                  : diis
 Damping factor/level shift   : 0.000/0.000
 DIIS [start/end/frequency]   :   2 /200 /  1

 Constructing Fock-matrix...
 
 Pipek-Mezey localization...
 Step  Convergence
   1   0.045541641334
   2   0.043845894900
   3   0.000003218252
   4   0.000000002607
   5   0.000000000010
   6   0.000000000000
 CPU time [min]:     1.053                   Wall time [min]:     0.028
 
 Constructing local fitting domains...
 Local fitting domains are unchanged.
 
 First step of Coulomb + first step of exchange...
 Exchange contribution is evaluated for MOs 1 to 5.
   1% done.
  24% done.
  44% done.
  69% done.
  81% done.
 100% done.
 Fitting and assembly step of exchange...
 CPU time [min]:     1.104                   Wall time [min]:     0.028
 
 Second step of Coulomb...
   1% done.
  24% done.
  44% done.
  69% done.
  81% done.
 100% done.
 CPU time [min]:     1.114                   Wall time [min]:     0.029
 
 Gradient norm:      4.4728E-08
 DIIS is running in this iteration step.
 RMS of [F,P]:                                         0.00000000196020
 RMS of difference density:                            0.00000000390138
 Gap [au]:  0.59418991
 ALPHA OCC:   5
 BETA  OCC:   5
 
 ***HARTREE-FOCK ENERGY IN STEP  11 IS        -56.1477063150611286 [AU]
 
 Step comparison  Energy Drift [au]  DIIS error drift  Gradient drift
       10            2.0606E-13         1.9665E-08       5.9093E-07
 ======================================================================
 ITERATION STEP  12
 CPU time [min]:     1.129                   Wall time [min]:     0.029
 

 SCF control                  : diis
 Damping factor/level shift   : 0.000/0.000
 DIIS [start/end/frequency]   :   2 /200 /  1

 Constructing Fock-matrix...
 
 Pipek-Mezey localization...
 Step  Convergence
   1   0.040008380176
   2   0.039662032692
   3   0.000007040741
   4   0.000000001673
   5   0.000000000000
 CPU time [min]:     1.155                   Wall time [min]:     0.029
 
 Constructing local fitting domains...
 Local fitting domains are unchanged.
 
 First step of Coulomb + first step of exchange...
 Exchange contribution is evaluated for MOs 1 to 5.
   1% done.
  24% done.
  44% done.
  69% done.
  81% done.
 100% done.
 Fitting and assembly step of exchange...
 CPU time [min]:     1.206                   Wall time [min]:     0.030
 
 Second step of Coulomb...
   1% done.
  24% done.
  44% done.
  69% done.
  81% done.
 100% done.
 CPU time [min]:     1.216                   Wall time [min]:     0.030
 
 Gradient norm:      3.1969E-09
 DIIS is running in this iteration step.
 RMS of [F,P]:                                         0.00000000016317
 RMS of difference density:                            0.00000000023249
 Gap [au]:  0.59418991
 ALPHA OCC:   5
 BETA  OCC:   5
 
 ***HARTREE-FOCK ENERGY IN STEP  12 IS        -56.1477063150611428 [AU]
 
 Step comparison  Energy Drift [au]  DIIS error drift  Gradient drift
       11            1.4211E-14         1.7970E-09       4.1531E-08
 
 The SCF iteration has converged.
 An extra iteration will be performed to calculate accurate SCF energy.
 
 ======================================================================
 ITERATION STEP  13
 CPU time [min]:     1.231                   Wall time [min]:     0.030
 

 SCF control                  : diis
 Damping factor/level shift   : 0.000/0.000
 DIIS [start/end/frequency]   :   2 /200 /  1

 Constructing Fock-matrix...
 
 Pipek-Mezey localization...
 Step  Convergence
   1   0.045293369016
   2   0.043722221304
   3   0.000004508115
   4   0.000000002590
   5   0.000000000006
   6   0.000000000000
 CPU time [min]:     1.257                   Wall time [min]:     0.031
 
 Constructing local fitting domains...
 Local fitting domains are unchanged.
 
 First step of Coulomb + first step of exchange...
 Exchange contribution is evaluated for MOs 1 to 5.
   1% done.
  24% done.
  44% done.
  69% done.
  81% done.
 100% done.
 Fitting and assembly step of exchange...
 CPU time [min]:     1.308                   Wall time [min]:     0.032
 
 Second step of Coulomb...
   1% done.
  24% done.
  44% done.
  69% done.
  81% done.
 100% done.
 CPU time [min]:     1.318                   Wall time [min]:     0.032
 
 Gradient norm:      5.1115E-10
 RMS of [F,P]:                                         0.00000000002716
 RMS of difference density:                            0.00000000003347
 Gap [au]:  0.59418991
 ALPHA OCC:   5
 BETA  OCC:   5
 
 ***HARTREE-FOCK ENERGY IN STEP  13 IS        -56.1477063150611073 [AU]
 
 Step comparison  Energy Drift [au]  DIIS error drift  Gradient drift
       12           -3.5527E-14         1.3601E-10       2.6857E-09
 Warning! The energy goes uphill (with respect to previous step).
 ======================================================================
 
 SUCCESS...
 THE SCF ITERATION HAS CONVERGED!
 
                   A   
 FINAL ALPHA OCC:   5
 FINAL BETA  OCC:   5
 
 ***FINAL HARTREE-FOCK ENERGY:        -56.1477063150611073 [AU]
 
 Orbital energies [au]:
      Irrep         Alpha          Beta
    1   A        -15.539163     -15.539163
    2   A         -1.111214      -1.111214
    3   A         -0.615134      -0.615134
    4   A         -0.615103      -0.615103
    5   A         -0.418560      -0.418560
 
    6   A          0.175630       0.175630
    7   A          0.268893       0.268893
    8   A          0.268900       0.268900
    9   A          0.733854       0.733854
   10   A          0.733893       0.733893
   11   A          0.882385       0.882385
   12   A          0.990000       0.990000
   13   A          1.093598       1.093598
   14   A          1.093606       1.093606
   15   A          1.140263       1.140263
   16   A          1.459621       1.459621
   17   A          1.459637       1.459637
   18   A          1.866467       1.866467
   19   A          1.964301       1.964301
   20   A          2.074287       2.074287
   21   A          2.074298       2.074298
   22   A          2.418489       2.418489
   23   A          2.418604       2.418604
   24   A          2.745580       2.745580
   25   A          3.155563       3.155563
   26   A          3.155580       3.155580
   27   A          3.258821       3.258821
   28   A          3.692147       3.692147
   29   A          3.692186       3.692186
 
 RETURNING FROM SCF ALGORITHM
 ======================================================================

 ************************ 2026-02-26 16:04:17 *************************
 Executing integ...

 Allocation of 46.0 Gbytes of memory...
 
 
 Number of atoms:                  4
 Charge:                           0
 Number of electrons:             10
 Number of core electrons:         2
 Spin multiplicity:                1
 
                 Cartesian coordinates [bohr]      Atomic mass [AMU]  Z
   1  N     1.97420664    1.97415541    1.97424640    14.003074       7
   2  H     3.51863349    2.63865391    1.00653002     1.007825       1
   3  H     2.63877653    1.00647336    3.51882825     1.007825       1
   4  H     1.00639751    3.51850532    2.63869260     1.007825       1
 
 This molecule is an asymmetric top.
 
 Rotational constants [cm-1]: 
      9.725611553639      9.725262897102      6.126632394896
 
 Point group: C1  
 Computational point group: C1  
 
 Cartesian coordinates in standard orientation [bohr]
   1  N     0.00001974   -0.00000801   -0.12725315
   2  H     1.29159153    1.25758525    0.58939811
   3  H    -1.73502610    0.48986803    0.58928866
   4  H     0.44316034   -1.74734193    0.58941309
 
 Nuclear repulsion energy [au]:         11.785797783990
 
 
 Basis set information:
 
 Maximum angular momentum: i
 Maximum number of contracted Gaussians:   11
 Maximum number of primitive Gaussians:    15
 Spherical harmonic GTOs are used.
 
 
 Conventional basis set:
 
   1  N  aug-cc-pv5z [ 15s 9p 5d 4f 3g 2h | 7s 6p 5d 4f 3g 2h ]
   2  H  aug-cc-pv5z [ 9s 5p 4d 3f 2g | 6s 5p 4d 3f 2g ]
   3  H  aug-cc-pv5z [ 9s 5p 4d 3f 2g | 6s 5p 4d 3f 2g ]
   4  H  aug-cc-pv5z [ 9s 5p 4d 3f 2g | 6s 5p 4d 3f 2g ]
 
 Basis functions:
            1             2             3             4             5             6             7             8             9            10
    0    1N1s          1N2s          1N3s          1N4s          1N5s          1N6s          1N7s          1N1pz         1N1py         1N1px     
    1    1N2pz         1N2py         1N2px         1N3pz         1N3py         1N3px         1N4pz         1N4py         1N4px         1N5pz     
    2    1N5py         1N5px         1N6pz         1N6py         1N6px         1N1d-2        1N1d-1        1N1d0         1N1d+1        1N1d+2    
    3    1N2d-2        1N2d-1        1N2d0         1N2d+1        1N2d+2        1N3d-2        1N3d-1        1N3d0         1N3d+1        1N3d+2    
    4    1N4d-2        1N4d-1        1N4d0         1N4d+1        1N4d+2        1N5d-2        1N5d-1        1N5d0         1N5d+1        1N5d+2    
    5    1N1f-3        1N1f-2        1N1f-1        1N1f0         1N1f+1        1N1f+2        1N1f+3        1N2f-3        1N2f-2        1N2f-1    
    6    1N2f0         1N2f+1        1N2f+2        1N2f+3        1N3f-3        1N3f-2        1N3f-1        1N3f0         1N3f+1        1N3f+2    
    7    1N3f+3        1N4f-3        1N4f-2        1N4f-1        1N4f0         1N4f+1        1N4f+2        1N4f+3        1N1g-4        1N1g-3    
    8    1N1g-2        1N1g-1        1N1g0         1N1g+1        1N1g+2        1N1g+3        1N1g+4        1N2g-4        1N2g-3        1N2g-2    
    9    1N2g-1        1N2g0         1N2g+1        1N2g+2        1N2g+3        1N2g+4        1N3g-4        1N3g-3        1N3g-2        1N3g-1    
   10    1N3g0         1N3g+1        1N3g+2        1N3g+3        1N3g+4        1N1h-5        1N1h-4        1N1h-3        1N1h-2        1N1h-1    
   11    1N1h0         1N1h+1        1N1h+2        1N1h+3        1N1h+4        1N1h+5        1N2h-5        1N2h-4        1N2h-3        1N2h-2    
   12    1N2h-1        1N2h0         1N2h+1        1N2h+2        1N2h+3        1N2h+4        1N2h+5        2H1s          2H2s          2H3s      
   13    2H4s          2H5s          2H6s          2H1pz         2H1py         2H1px         2H2pz         2H2py         2H2px         2H3pz     
   14    2H3py         2H3px         2H4pz         2H4py         2H4px         2H5pz         2H5py         2H5px         2H1d-2        2H1d-1    
   15    2H1d0         2H1d+1        2H1d+2        2H2d-2        2H2d-1        2H2d0         2H2d+1        2H2d+2        2H3d-2        2H3d-1    
   16    2H3d0         2H3d+1        2H3d+2        2H4d-2        2H4d-1        2H4d0         2H4d+1        2H4d+2        2H1f-3        2H1f-2    
   17    2H1f-1        2H1f0         2H1f+1        2H1f+2        2H1f+3        2H2f-3        2H2f-2        2H2f-1        2H2f0         2H2f+1    
   18    2H2f+2        2H2f+3        2H3f-3        2H3f-2        2H3f-1        2H3f0         2H3f+1        2H3f+2        2H3f+3        2H1g-4    
   19    2H1g-3        2H1g-2        2H1g-1        2H1g0         2H1g+1        2H1g+2        2H1g+3        2H1g+4        2H2g-4        2H2g-3    
   20    2H2g-2        2H2g-1        2H2g0         2H2g+1        2H2g+2        2H2g+3        2H2g+4        3H1s          3H2s          3H3s      
   21    3H4s          3H5s          3H6s          3H1pz         3H1py         3H1px         3H2pz         3H2py         3H2px         3H3pz     
   22    3H3py         3H3px         3H4pz         3H4py         3H4px         3H5pz         3H5py         3H5px         3H1d-2        3H1d-1    
   23    3H1d0         3H1d+1        3H1d+2        3H2d-2        3H2d-1        3H2d0         3H2d+1        3H2d+2        3H3d-2        3H3d-1    
   24    3H3d0         3H3d+1        3H3d+2        3H4d-2        3H4d-1        3H4d0         3H4d+1        3H4d+2        3H1f-3        3H1f-2    
   25    3H1f-1        3H1f0         3H1f+1        3H1f+2        3H1f+3        3H2f-3        3H2f-2        3H2f-1        3H2f0         3H2f+1    
   26    3H2f+2        3H2f+3        3H3f-3        3H3f-2        3H3f-1        3H3f0         3H3f+1        3H3f+2        3H3f+3        3H1g-4    
   27    3H1g-3        3H1g-2        3H1g-1        3H1g0         3H1g+1        3H1g+2        3H1g+3        3H1g+4        3H2g-4        3H2g-3    
   28    3H2g-2        3H2g-1        3H2g0         3H2g+1        3H2g+2        3H2g+3        3H2g+4        4H1s          4H2s          4H3s      
   29    4H4s          4H5s          4H6s          4H1pz         4H1py         4H1px         4H2pz         4H2py         4H2px         4H3pz     
   30    4H3py         4H3px         4H4pz         4H4py         4H4px         4H5pz         4H5py         4H5px         4H1d-2        4H1d-1    
   31    4H1d0         4H1d+1        4H1d+2        4H2d-2        4H2d-1        4H2d0         4H2d+1        4H2d+2        4H3d-2        4H3d-1    
   32    4H3d0         4H3d+1        4H3d+2        4H4d-2        4H4d-1        4H4d0         4H4d+1        4H4d+2        4H1f-3        4H1f-2    
   33    4H1f-1        4H1f0         4H1f+1        4H1f+2        4H1f+3        4H2f-3        4H2f-2        4H2f-1        4H2f0         4H2f+1    
   34    4H2f+2        4H2f+3        4H3f-3        4H3f-2        4H3f-1        4H3f0         4H3f+1        4H3f+2        4H3f+3        4H1g-4    
   35    4H1g-3        4H1g-2        4H1g-1        4H1g0         4H1g+1        4H1g+2        4H1g+3        4H1g+4        4H2g-4        4H2g-3    
   36    4H2g-2        4H2g-1        4H2g0         4H2g+1        4H2g+2        4H2g+3        4H2g+4    
 
 Maximum number of basis functions per shell:   28
 Total number of basis functions:    367
 
 
 Fitting basis set for the SCF calculation:
 
   1  N  aug-cc-pv5z-ri-jk [ 11s 8p 6d 5f 4g 3h 2i | 11s 8p 6d 5f 4g 3h 2i ]
   2  H  aug-cc-pv5z-ri-jk [ 5s 4p 5d 4f 3g 2h | 5s 4p 5d 4f 3g 2h ]
   3  H  aug-cc-pv5z-ri-jk [ 5s 4p 5d 4f 3g 2h | 5s 4p 5d 4f 3g 2h ]
   4  H  aug-cc-pv5z-ri-jk [ 5s 4p 5d 4f 3g 2h | 5s 4p 5d 4f 3g 2h ]
 
 Basis functions:
            1             2             3             4             5             6             7             8             9            10
    0    1N1s          1N2s          1N3s          1N4s          1N5s          1N6s          1N7s          1N8s          1N9s          1N10s     
    1    1N11s         1N1pz         1N1py         1N1px         1N2pz         1N2py         1N2px         1N3pz         1N3py         1N3px     
    2    1N4pz         1N4py         1N4px         1N5pz         1N5py         1N5px         1N6pz         1N6py         1N6px         1N7pz     
    3    1N7py         1N7px         1N8pz         1N8py         1N8px         1N1d-2        1N1d-1        1N1d0         1N1d+1        1N1d+2    
    4    1N2d-2        1N2d-1        1N2d0         1N2d+1        1N2d+2        1N3d-2        1N3d-1        1N3d0         1N3d+1        1N3d+2    
    5    1N4d-2        1N4d-1        1N4d0         1N4d+1        1N4d+2        1N5d-2        1N5d-1        1N5d0         1N5d+1        1N5d+2    
    6    1N6d-2        1N6d-1        1N6d0         1N6d+1        1N6d+2        1N1f-3        1N1f-2        1N1f-1        1N1f0         1N1f+1    
    7    1N1f+2        1N1f+3        1N2f-3        1N2f-2        1N2f-1        1N2f0         1N2f+1        1N2f+2        1N2f+3        1N3f-3    
    8    1N3f-2        1N3f-1        1N3f0         1N3f+1        1N3f+2        1N3f+3        1N4f-3        1N4f-2        1N4f-1        1N4f0     
    9    1N4f+1        1N4f+2        1N4f+3        1N5f-3        1N5f-2        1N5f-1        1N5f0         1N5f+1        1N5f+2        1N5f+3    
   10    1N1g-4        1N1g-3        1N1g-2        1N1g-1        1N1g0         1N1g+1        1N1g+2        1N1g+3        1N1g+4        1N2g-4    
   11    1N2g-3        1N2g-2        1N2g-1        1N2g0         1N2g+1        1N2g+2        1N2g+3        1N2g+4        1N3g-4        1N3g-3    
   12    1N3g-2        1N3g-1        1N3g0         1N3g+1        1N3g+2        1N3g+3        1N3g+4        1N4g-4        1N4g-3        1N4g-2    
   13    1N4g-1        1N4g0         1N4g+1        1N4g+2        1N4g+3        1N4g+4        1N1h-5        1N1h-4        1N1h-3        1N1h-2    
   14    1N1h-1        1N1h0         1N1h+1        1N1h+2        1N1h+3        1N1h+4        1N1h+5        1N2h-5        1N2h-4        1N2h-3    
   15    1N2h-2        1N2h-1        1N2h0         1N2h+1        1N2h+2        1N2h+3        1N2h+4        1N2h+5        1N3h-5        1N3h-4    
   16    1N3h-3        1N3h-2        1N3h-1        1N3h0         1N3h+1        1N3h+2        1N3h+3        1N3h+4        1N3h+5        1N1i-6    
   17    1N1i-5        1N1i-4        1N1i-3        1N1i-2        1N1i-1        1N1i0         1N1i+1        1N1i+2        1N1i+3        1N1i+4    
   18    1N1i+5        1N1i+6        1N2i-6        1N2i-5        1N2i-4        1N2i-3        1N2i-2        1N2i-1        1N2i0         1N2i+1    
   19    1N2i+2        1N2i+3        1N2i+4        1N2i+5        1N2i+6        2H1s          2H2s          2H3s          2H4s          2H5s      
   20    2H1pz         2H1py         2H1px         2H2pz         2H2py         2H2px         2H3pz         2H3py         2H3px         2H4pz     
   21    2H4py         2H4px         2H1d-2        2H1d-1        2H1d0         2H1d+1        2H1d+2        2H2d-2        2H2d-1        2H2d0     
   22    2H2d+1        2H2d+2        2H3d-2        2H3d-1        2H3d0         2H3d+1        2H3d+2        2H4d-2        2H4d-1        2H4d0     
   23    2H4d+1        2H4d+2        2H5d-2        2H5d-1        2H5d0         2H5d+1        2H5d+2        2H1f-3        2H1f-2        2H1f-1    
   24    2H1f0         2H1f+1        2H1f+2        2H1f+3        2H2f-3        2H2f-2        2H2f-1        2H2f0         2H2f+1        2H2f+2    
   25    2H2f+3        2H3f-3        2H3f-2        2H3f-1        2H3f0         2H3f+1        2H3f+2        2H3f+3        2H4f-3        2H4f-2    
   26    2H4f-1        2H4f0         2H4f+1        2H4f+2        2H4f+3        2H1g-4        2H1g-3        2H1g-2        2H1g-1        2H1g0     
   27    2H1g+1        2H1g+2        2H1g+3        2H1g+4        2H2g-4        2H2g-3        2H2g-2        2H2g-1        2H2g0         2H2g+1    
   28    2H2g+2        2H2g+3        2H2g+4        2H3g-4        2H3g-3        2H3g-2        2H3g-1        2H3g0         2H3g+1        2H3g+2    
   29    2H3g+3        2H3g+4        2H1h-5        2H1h-4        2H1h-3        2H1h-2        2H1h-1        2H1h0         2H1h+1        2H1h+2    
   30    2H1h+3        2H1h+4        2H1h+5        2H2h-5        2H2h-4        2H2h-3        2H2h-2        2H2h-1        2H2h0         2H2h+1    
   31    2H2h+2        2H2h+3        2H2h+4        2H2h+5        3H1s          3H2s          3H3s          3H4s          3H5s          3H1pz     
   32    3H1py         3H1px         3H2pz         3H2py         3H2px         3H3pz         3H3py         3H3px         3H4pz         3H4py     
   33    3H4px         3H1d-2        3H1d-1        3H1d0         3H1d+1        3H1d+2        3H2d-2        3H2d-1        3H2d0         3H2d+1    
   34    3H2d+2        3H3d-2        3H3d-1        3H3d0         3H3d+1        3H3d+2        3H4d-2        3H4d-1        3H4d0         3H4d+1    
   35    3H4d+2        3H5d-2        3H5d-1        3H5d0         3H5d+1        3H5d+2        3H1f-3        3H1f-2        3H1f-1        3H1f0     
   36    3H1f+1        3H1f+2        3H1f+3        3H2f-3        3H2f-2        3H2f-1        3H2f0         3H2f+1        3H2f+2        3H2f+3    
   37    3H3f-3        3H3f-2        3H3f-1        3H3f0         3H3f+1        3H3f+2        3H3f+3        3H4f-3        3H4f-2        3H4f-1    
   38    3H4f0         3H4f+1        3H4f+2        3H4f+3        3H1g-4        3H1g-3        3H1g-2        3H1g-1        3H1g0         3H1g+1    
   39    3H1g+2        3H1g+3        3H1g+4        3H2g-4        3H2g-3        3H2g-2        3H2g-1        3H2g0         3H2g+1        3H2g+2    
   40    3H2g+3        3H2g+4        3H3g-4        3H3g-3        3H3g-2        3H3g-1        3H3g0         3H3g+1        3H3g+2        3H3g+3    
   41    3H3g+4        3H1h-5        3H1h-4        3H1h-3        3H1h-2        3H1h-1        3H1h0         3H1h+1        3H1h+2        3H1h+3    
   42    3H1h+4        3H1h+5        3H2h-5        3H2h-4        3H2h-3        3H2h-2        3H2h-1        3H2h0         3H2h+1        3H2h+2    
   43    3H2h+3        3H2h+4        3H2h+5        4H1s          4H2s          4H3s          4H4s          4H5s          4H1pz         4H1py     
   44    4H1px         4H2pz         4H2py         4H2px         4H3pz         4H3py         4H3px         4H4pz         4H4py         4H4px     
   45    4H1d-2        4H1d-1        4H1d0         4H1d+1        4H1d+2        4H2d-2        4H2d-1        4H2d0         4H2d+1        4H2d+2    
   46    4H3d-2        4H3d-1        4H3d0         4H3d+1        4H3d+2        4H4d-2        4H4d-1        4H4d0         4H4d+1        4H4d+2    
   47    4H5d-2        4H5d-1        4H5d0         4H5d+1        4H5d+2        4H1f-3        4H1f-2        4H1f-1        4H1f0         4H1f+1    
   48    4H1f+2        4H1f+3        4H2f-3        4H2f-2        4H2f-1        4H2f0         4H2f+1        4H2f+2        4H2f+3        4H3f-3    
   49    4H3f-2        4H3f-1        4H3f0         4H3f+1        4H3f+2        4H3f+3        4H4f-3        4H4f-2        4H4f-1        4H4f0     
   50    4H4f+1        4H4f+2        4H4f+3        4H1g-4        4H1g-3        4H1g-2        4H1g-1        4H1g0         4H1g+1        4H1g+2    
   51    4H1g+3        4H1g+4        4H2g-4        4H2g-3        4H2g-2        4H2g-1        4H2g0         4H2g+1        4H2g+2        4H2g+3    
   52    4H2g+4        4H3g-4        4H3g-3        4H3g-2        4H3g-1        4H3g0         4H3g+1        4H3g+2        4H3g+3        4H3g+4    
   53    4H1h-5        4H1h-4        4H1h-3        4H1h-2        4H1h-1        4H1h0         4H1h+1        4H1h+2        4H1h+3        4H1h+4    
   54    4H1h+5        4H2h-5        4H2h-4        4H2h-3        4H2h-2        4H2h-1        4H2h0         4H2h+1        4H2h+2        4H2h+3    
   55    4H2h+4        4H2h+5    
 
 Maximum number of basis functions per shell:   36
 Total number of basis functions:    552
 
 
 Fitting basis set for the correlation calculation:
 
   1  N  aug-cc-pv5z-ri [ 11s 9p 8d 7f 5g 4h 2i | 11s 9p 8d 7f 5g 4h 2i ]
   2  H  aug-cc-pv5z-ri [ 7s 6p 5d 4f 3g 2h | 7s 6p 5d 4f 3g 2h ]
   3  H  aug-cc-pv5z-ri [ 7s 6p 5d 4f 3g 2h | 7s 6p 5d 4f 3g 2h ]
   4  H  aug-cc-pv5z-ri [ 7s 6p 5d 4f 3g 2h | 7s 6p 5d 4f 3g 2h ]
 
 Basis functions:
            1             2             3             4             5             6             7             8             9            10
    0    1N1s          1N2s          1N3s          1N4s          1N5s          1N6s          1N7s          1N8s          1N9s          1N10s     
    1    1N11s         1N1pz         1N1py         1N1px         1N2pz         1N2py         1N2px         1N3pz         1N3py         1N3px     
    2    1N4pz         1N4py         1N4px         1N5pz         1N5py         1N5px         1N6pz         1N6py         1N6px         1N7pz     
    3    1N7py         1N7px         1N8pz         1N8py         1N8px         1N9pz         1N9py         1N9px         1N1d-2        1N1d-1    
    4    1N1d0         1N1d+1        1N1d+2        1N2d-2        1N2d-1        1N2d0         1N2d+1        1N2d+2        1N3d-2        1N3d-1    
    5    1N3d0         1N3d+1        1N3d+2        1N4d-2        1N4d-1        1N4d0         1N4d+1        1N4d+2        1N5d-2        1N5d-1    
    6    1N5d0         1N5d+1        1N5d+2        1N6d-2        1N6d-1        1N6d0         1N6d+1        1N6d+2        1N7d-2        1N7d-1    
    7    1N7d0         1N7d+1        1N7d+2        1N8d-2        1N8d-1        1N8d0         1N8d+1        1N8d+2        1N1f-3        1N1f-2    
    8    1N1f-1        1N1f0         1N1f+1        1N1f+2        1N1f+3        1N2f-3        1N2f-2        1N2f-1        1N2f0         1N2f+1    
    9    1N2f+2        1N2f+3        1N3f-3        1N3f-2        1N3f-1        1N3f0         1N3f+1        1N3f+2        1N3f+3        1N4f-3    
   10    1N4f-2        1N4f-1        1N4f0         1N4f+1        1N4f+2        1N4f+3        1N5f-3        1N5f-2        1N5f-1        1N5f0     
   11    1N5f+1        1N5f+2        1N5f+3        1N6f-3        1N6f-2        1N6f-1        1N6f0         1N6f+1        1N6f+2        1N6f+3    
   12    1N7f-3        1N7f-2        1N7f-1        1N7f0         1N7f+1        1N7f+2        1N7f+3        1N1g-4        1N1g-3        1N1g-2    
   13    1N1g-1        1N1g0         1N1g+1        1N1g+2        1N1g+3        1N1g+4        1N2g-4        1N2g-3        1N2g-2        1N2g-1    
   14    1N2g0         1N2g+1        1N2g+2        1N2g+3        1N2g+4        1N3g-4        1N3g-3        1N3g-2        1N3g-1        1N3g0     
   15    1N3g+1        1N3g+2        1N3g+3        1N3g+4        1N4g-4        1N4g-3        1N4g-2        1N4g-1        1N4g0         1N4g+1    
   16    1N4g+2        1N4g+3        1N4g+4        1N5g-4        1N5g-3        1N5g-2        1N5g-1        1N5g0         1N5g+1        1N5g+2    
   17    1N5g+3        1N5g+4        1N1h-5        1N1h-4        1N1h-3        1N1h-2        1N1h-1        1N1h0         1N1h+1        1N1h+2    
   18    1N1h+3        1N1h+4        1N1h+5        1N2h-5        1N2h-4        1N2h-3        1N2h-2        1N2h-1        1N2h0         1N2h+1    
   19    1N2h+2        1N2h+3        1N2h+4        1N2h+5        1N3h-5        1N3h-4        1N3h-3        1N3h-2        1N3h-1        1N3h0     
   20    1N3h+1        1N3h+2        1N3h+3        1N3h+4        1N3h+5        1N4h-5        1N4h-4        1N4h-3        1N4h-2        1N4h-1    
   21    1N4h0         1N4h+1        1N4h+2        1N4h+3        1N4h+4        1N4h+5        1N1i-6        1N1i-5        1N1i-4        1N1i-3    
   22    1N1i-2        1N1i-1        1N1i0         1N1i+1        1N1i+2        1N1i+3        1N1i+4        1N1i+5        1N1i+6        1N2i-6    
   23    1N2i-5        1N2i-4        1N2i-3        1N2i-2        1N2i-1        1N2i0         1N2i+1        1N2i+2        1N2i+3        1N2i+4    
   24    1N2i+5        1N2i+6        2H1s          2H2s          2H3s          2H4s          2H5s          2H6s          2H7s          2H1pz     
   25    2H1py         2H1px         2H2pz         2H2py         2H2px         2H3pz         2H3py         2H3px         2H4pz         2H4py     
   26    2H4px         2H5pz         2H5py         2H5px         2H6pz         2H6py         2H6px         2H1d-2        2H1d-1        2H1d0     
   27    2H1d+1        2H1d+2        2H2d-2        2H2d-1        2H2d0         2H2d+1        2H2d+2        2H3d-2        2H3d-1        2H3d0     
   28    2H3d+1        2H3d+2        2H4d-2        2H4d-1        2H4d0         2H4d+1        2H4d+2        2H5d-2        2H5d-1        2H5d0     
   29    2H5d+1        2H5d+2        2H1f-3        2H1f-2        2H1f-1        2H1f0         2H1f+1        2H1f+2        2H1f+3        2H2f-3    
   30    2H2f-2        2H2f-1        2H2f0         2H2f+1        2H2f+2        2H2f+3        2H3f-3        2H3f-2        2H3f-1        2H3f0     
   31    2H3f+1        2H3f+2        2H3f+3        2H4f-3        2H4f-2        2H4f-1        2H4f0         2H4f+1        2H4f+2        2H4f+3    
   32    2H1g-4        2H1g-3        2H1g-2        2H1g-1        2H1g0         2H1g+1        2H1g+2        2H1g+3        2H1g+4        2H2g-4    
   33    2H2g-3        2H2g-2        2H2g-1        2H2g0         2H2g+1        2H2g+2        2H2g+3        2H2g+4        2H3g-4        2H3g-3    
   34    2H3g-2        2H3g-1        2H3g0         2H3g+1        2H3g+2        2H3g+3        2H3g+4        2H1h-5        2H1h-4        2H1h-3    
   35    2H1h-2        2H1h-1        2H1h0         2H1h+1        2H1h+2        2H1h+3        2H1h+4        2H1h+5        2H2h-5        2H2h-4    
   36    2H2h-3        2H2h-2        2H2h-1        2H2h0         2H2h+1        2H2h+2        2H2h+3        2H2h+4        2H2h+5        3H1s      
   37    3H2s          3H3s          3H4s          3H5s          3H6s          3H7s          3H1pz         3H1py         3H1px         3H2pz     
   38    3H2py         3H2px         3H3pz         3H3py         3H3px         3H4pz         3H4py         3H4px         3H5pz         3H5py     
   39    3H5px         3H6pz         3H6py         3H6px         3H1d-2        3H1d-1        3H1d0         3H1d+1        3H1d+2        3H2d-2    
   40    3H2d-1        3H2d0         3H2d+1        3H2d+2        3H3d-2        3H3d-1        3H3d0         3H3d+1        3H3d+2        3H4d-2    
   41    3H4d-1        3H4d0         3H4d+1        3H4d+2        3H5d-2        3H5d-1        3H5d0         3H5d+1        3H5d+2        3H1f-3    
   42    3H1f-2        3H1f-1        3H1f0         3H1f+1        3H1f+2        3H1f+3        3H2f-3        3H2f-2        3H2f-1        3H2f0     
   43    3H2f+1        3H2f+2        3H2f+3        3H3f-3        3H3f-2        3H3f-1        3H3f0         3H3f+1        3H3f+2        3H3f+3    
   44    3H4f-3        3H4f-2        3H4f-1        3H4f0         3H4f+1        3H4f+2        3H4f+3        3H1g-4        3H1g-3        3H1g-2    
   45    3H1g-1        3H1g0         3H1g+1        3H1g+2        3H1g+3        3H1g+4        3H2g-4        3H2g-3        3H2g-2        3H2g-1    
   46    3H2g0         3H2g+1        3H2g+2        3H2g+3        3H2g+4        3H3g-4        3H3g-3        3H3g-2        3H3g-1        3H3g0     
   47    3H3g+1        3H3g+2        3H3g+3        3H3g+4        3H1h-5        3H1h-4        3H1h-3        3H1h-2        3H1h-1        3H1h0     
   48    3H1h+1        3H1h+2        3H1h+3        3H1h+4        3H1h+5        3H2h-5        3H2h-4        3H2h-3        3H2h-2        3H2h-1    
   49    3H2h0         3H2h+1        3H2h+2        3H2h+3        3H2h+4        3H2h+5        4H1s          4H2s          4H3s          4H4s      
   50    4H5s          4H6s          4H7s          4H1pz         4H1py         4H1px         4H2pz         4H2py         4H2px         4H3pz     
   51    4H3py         4H3px         4H4pz         4H4py         4H4px         4H5pz         4H5py         4H5px         4H6pz         4H6py     
   52    4H6px         4H1d-2        4H1d-1        4H1d0         4H1d+1        4H1d+2        4H2d-2        4H2d-1        4H2d0         4H2d+1    
   53    4H2d+2        4H3d-2        4H3d-1        4H3d0         4H3d+1        4H3d+2        4H4d-2        4H4d-1        4H4d0         4H4d+1    
   54    4H4d+2        4H5d-2        4H5d-1        4H5d0         4H5d+1        4H5d+2        4H1f-3        4H1f-2        4H1f-1        4H1f0     
   55    4H1f+1        4H1f+2        4H1f+3        4H2f-3        4H2f-2        4H2f-1        4H2f0         4H2f+1        4H2f+2        4H2f+3    
   56    4H3f-3        4H3f-2        4H3f-1        4H3f0         4H3f+1        4H3f+2        4H3f+3        4H4f-3        4H4f-2        4H4f-1    
   57    4H4f0         4H4f+1        4H4f+2        4H4f+3        4H1g-4        4H1g-3        4H1g-2        4H1g-1        4H1g0         4H1g+1    
   58    4H1g+2        4H1g+3        4H1g+4        4H2g-4        4H2g-3        4H2g-2        4H2g-1        4H2g0         4H2g+1        4H2g+2    
   59    4H2g+3        4H2g+4        4H3g-4        4H3g-3        4H3g-2        4H3g-1        4H3g0         4H3g+1        4H3g+2        4H3g+3    
   60    4H3g+4        4H1h-5        4H1h-4        4H1h-3        4H1h-2        4H1h-1        4H1h0         4H1h+1        4H1h+2        4H1h+3    
   61    4H1h+4        4H1h+5        4H2h-5        4H2h-4        4H2h-3        4H2h-2        4H2h-1        4H2h0         4H2h+1        4H2h+2    
   62    4H2h+3        4H2h+4        4H2h+5    
 
 Maximum number of basis functions per shell:   49
 Total number of basis functions:    623
 
 
 Old basis set for SCF restart
 
   1  N  def2-svp [ 7s 4p 1d | 3s 2p 1d ]
   2  H  def2-svp [ 4s 1p | 2s 1p ]
   3  H  def2-svp [ 4s 1p | 2s 1p ]
   4  H  def2-svp [ 4s 1p | 2s 1p ]
 
 Basis functions:
            1             2             3             4             5             6             7             8             9            10
    0    1N1s          1N2s          1N3s          1N1pz         1N1py         1N1px         1N2pz         1N2py         1N2px         1N1d-2    
    1    1N1d-1        1N1d0         1N1d+1        1N1d+2        2H1s          2H2s          2H1pz         2H1py         2H1px         3H1s      
    2    3H2s          3H1pz         3H1py         3H1px         4H1s          4H2s          4H1pz         4H1py         4H1px     
 
 Maximum number of basis functions per shell:   49
 Total number of basis functions:     29
 
 
 Character table for point group C1:
 
          E  
    A     1
 
 Number of basis functions per irrep:
    A     367
 
 
 Calculation of overlap integrals...
 CPU time [min]:     0.149                   Wall time [min]:     0.005
 
 Calculation of the square root of the overlap matrix...
 Minimum eigenvalue of the overlap matrix: 0.980665E-05
 CPU time [min]:     0.186                   Wall time [min]:     0.005
 
 Calculation of kinetic energy integrals...
 CPU time [min]:     0.188                   Wall time [min]:     0.005
 Calculation of dipole moment integrals...
 CPU time [min]:     0.192                   Wall time [min]:     0.005
 Calculation of nuclear attraction integrals...
 CPU time [min]:     0.195                   Wall time [min]:     0.006
 Calculation of overlap integrals...
 CPU time [min]:     0.198                   Wall time [min]:     0.006
 
 Calculation of prescreening integrals...
 CPU time [min]:     1.519                   Wall time [min]:     0.026
 
 Calculation of two-center Coulomb integrals...
   1% done.
  13% done.
  28% done.
  42% done.
  55% done.
  66% done.
  83% done.
 100% done.
 CPU time [min]:     1.535                   Wall time [min]:     0.026
 
 Cholesky decomposition of the two-center matrix...
 Reciprocal of the condition number:  0.109770E-04
 CPU time [min]:     1.550                   Wall time [min]:     0.027
 

 ************************ 2026-02-26 16:04:19 *************************
 Executing scf...

 @scfsetup: integrals calculated directly
            mrcc/integ direct run
 @scfsetup: calculating on full matrices
            not using symmetry adapted basis
 @scfsetup: diis switched on
 @scfsetup: number of steps to extrapolate from  10
 @scfsetup: tolerance in energy deviation    0.100000E-07
            tolerance in density deviation    0.100000E-08
 @scfsetup: maximum number of iterations: 200
 @scfsetup: restricted closed shell hf calc
 @scfsetup: restarting scf from SCFDENSITIES file
 @scfsetup: occupation set:
            from initial orbitals
 @scfsetup: Parameter-set for SCF acceleration: normal
 @scfsetup: diis runs from iteration:   2
 @scfsetup: diis runs to iteration: 200
 @scfsetup: diis runs in every iteration
 @scfsetup: diiswatch is disabled                   
 @scfsetup: diis dtol criteria to switch on:      0.0000E+00
           (or the iteration number below is reached)
 @scfsetup: static damping scheme
            iteration step criteria to turn damping off: 3
 @scfsetup: dynamic level shifting
            tolarance in HOMO-LUMO gap:  0.200
            tolarance in density deviation:     0.0000E+00
            iteration step criteria to turn level shifting off: 8
 Allocation of 46.0 Gbytes of memory...
 ======================================================================
 ITERATION STEP   1
 CPU time [min]:     0.063                   Wall time [min]:     0.009
 

 SCF control                  : initial
 Damping factor/level shift   : 0.000/0.200
 DIIS [start/end/frequency]   :   2 /200 /  1

 Constructing Fock-matrix...
 Inverse square root: The matrix is not positive definite!
 
 Pipek-Mezey localization...
 Step  Convergence
   1   1.073548424548
   2   0.035970402653
   3   0.000311266084
   4   0.000001894956
   5   0.000000021100
   6   0.000000000317
 CPU time [min]:     0.093                   Wall time [min]:     0.009
 
 Constructing local fitting domains...
 Maximum number of atoms in fitting domains:    4
 Average number of atoms in fitting domains:    4.0
 
 First step of Coulomb + first step of exchange...
 Exchange contribution is evaluated for MOs 1 to 5.
   2% done.
  13% done.
  27% done.
  39% done.
  54% done.
  70% done.
  90% done.
 100% done.
 Fitting and assembly step of exchange...
 CPU time [min]:     0.415                   Wall time [min]:     0.014
 
 Second step of Coulomb...
   2% done.
  13% done.
  27% done.
  39% done.
  54% done.
  70% done.
  90% done.
 100% done.
 CPU time [min]:     0.573                   Wall time [min]:     0.017
 
 Gradient norm:      9.8850E-01
 RMS of [F,P]:                                         0.00708057523941
 RMS of difference density:                            0.01058754188804
 Gap [au]:  0.44853182
 ALPHA OCC:   5
 BETA  OCC:   5
 
 ***HARTREE-FOCK ENERGY IN STEP   1 IS        -56.1712982769669082 [AU]
 ======================================================================
 ITERATION STEP   2
 CPU time [min]:     0.616                   Wall time [min]:     0.018
 

 SCF control                  : diis
 Damping factor/level shift   : 0.000/0.000
 DIIS [start/end/frequency]   :   2 /200 /  1

 Constructing Fock-matrix...
 
 Pipek-Mezey localization...
 Step  Convergence
   1   0.019985315120
   2   0.021607907877
   3   0.000098339824
   4   0.000000613573
   5   0.000000002653
 CPU time [min]:     0.641                   Wall time [min]:     0.018
 
 Constructing local fitting domains...
 Maximum number of atoms in fitting domains:    4
 Average number of atoms in fitting domains:    4.0
 
 First step of Coulomb + first step of exchange...
 Exchange contribution is evaluated for MOs 1 to 5.
   2% done.
  13% done.
  27% done.
  39% done.
  54% done.
  70% done.
  90% done.
 100% done.
 Fitting and assembly step of exchange...
 CPU time [min]:     0.945                   Wall time [min]:     0.023
 
 Second step of Coulomb...
   2% done.
  13% done.
  27% done.
  39% done.
  54% done.
  70% done.
  90% done.
 100% done.
 CPU time [min]:     1.100                   Wall time [min]:     0.025
 
 Gradient norm:      4.6230E-02
 DIIS is running in this iteration step.
 RMS of [F,P]:                                         0.00021484069667
 RMS of difference density:                            0.00119688107960
 Gap [au]:  0.45078413
 ALPHA OCC:   5
 BETA  OCC:   5
 
 ***HARTREE-FOCK ENERGY IN STEP   2 IS        -56.2222620504704480 [AU]
 
 Step comparison  Energy Drift [au]  DIIS error drift  Gradient drift
        1            5.0964E-02         6.8657E-03       9.4227E-01
        2            5.6222E+01         1.0000E-09       9.4227E-01
 ======================================================================
 ITERATION STEP   3
 CPU time [min]:     1.142                   Wall time [min]:     0.026
 

 SCF control                  : diis
 Damping factor/level shift   : 0.000/0.000
 DIIS [start/end/frequency]   :   2 /200 /  1

 Constructing Fock-matrix...
 
 Pipek-Mezey localization...
 Step  Convergence
   1   0.031209173514
   2   0.033589145237
   3   0.000220858677
   4   0.000000707671
   5   0.000000007813
 CPU time [min]:     1.167                   Wall time [min]:     0.026
 
 Constructing local fitting domains...
 Local fitting domains are unchanged.
 
 First step of Coulomb + first step of exchange...
 Exchange contribution is evaluated for MOs 1 to 5.
   2% done.
  13% done.
  27% done.
  39% done.
  54% done.
  70% done.
  90% done.
 100% done.
 Fitting and assembly step of exchange...
 CPU time [min]:     1.469                   Wall time [min]:     0.031
 
 Second step of Coulomb...
   2% done.
  13% done.
  27% done.
  39% done.
  54% done.
  70% done.
  90% done.
 100% done.
 CPU time [min]:     1.624                   Wall time [min]:     0.034
 
 Gradient norm:      9.1942E-03
 DIIS is running in this iteration step.
 RMS of [F,P]:                                         0.00005335573657
 RMS of difference density:                            0.00027558768350
 Gap [au]:  0.45309958
 ALPHA OCC:   5
 BETA  OCC:   5
 
 ***HARTREE-FOCK ENERGY IN STEP   3 IS        -56.2232153523780909 [AU]
 
 Step comparison  Energy Drift [au]  DIIS error drift  Gradient drift
        2            9.5330E-04         1.6148E-04       3.7036E-02
 ======================================================================
 ITERATION STEP   4
 CPU time [min]:     1.662                   Wall time [min]:     0.034
 

 SCF control                  : diis
 Damping factor/level shift   : 0.000/0.000
 DIIS [start/end/frequency]   :   2 /200 /  1

 Constructing Fock-matrix...
 
 Pipek-Mezey localization...
 Step  Convergence
   1   0.019985305586
   2   0.021642632722
   3   0.000101421902
   4   0.000000605169
   5   0.000000001837
 CPU time [min]:     1.687                   Wall time [min]:     0.035
 
 Constructing local fitting domains...
 Local fitting domains are unchanged.
 
 First step of Coulomb + first step of exchange...
 Exchange contribution is evaluated for MOs 1 to 5.
   2% done.
  13% done.
  27% done.
  39% done.
  54% done.
  70% done.
  90% done.
 100% done.
 Fitting and assembly step of exchange...
 CPU time [min]:     1.991                   Wall time [min]:     0.040
 
 Second step of Coulomb...
   2% done.
  13% done.
  27% done.
  39% done.
  54% done.
  70% done.
  90% done.
 100% done.
 CPU time [min]:     2.146                   Wall time [min]:     0.042
 
 Gradient norm:      4.0973E-03
 DIIS is running in this iteration step.
 RMS of [F,P]:                                         0.00002067884812
 RMS of difference density:                            0.00005083384637
 Gap [au]:  0.45094306
 ALPHA OCC:   5
 BETA  OCC:   5
 
 ***HARTREE-FOCK ENERGY IN STEP   4 IS        -56.2233507453813104 [AU]
 
 Step comparison  Energy Drift [au]  DIIS error drift  Gradient drift
        3            1.3539E-04         3.2677E-05       5.0969E-03
 ======================================================================
 ITERATION STEP   5
 CPU time [min]:     2.185                   Wall time [min]:     0.043
 

 SCF control                  : diis
 Damping factor/level shift   : 0.000/0.000
 DIIS [start/end/frequency]   :   2 /200 /  1

 Constructing Fock-matrix...
 
 Pipek-Mezey localization...
 Step  Convergence
   1   0.040732643140
   2   0.049695702070
   3   0.000910197114
   4   0.000003164342
   5   0.000000021656
   6   0.000000000123
 CPU time [min]:     2.211                   Wall time [min]:     0.043
 
 Constructing local fitting domains...
 Local fitting domains are unchanged.
 
 First step of Coulomb + first step of exchange...
 Exchange contribution is evaluated for MOs 1 to 5.
   2% done.
  13% done.
  27% done.
  39% done.
  54% done.
  70% done.
  90% done.
 100% done.
 Fitting and assembly step of exchange...
 CPU time [min]:     2.510                   Wall time [min]:     0.048
 
 Second step of Coulomb...
   2% done.
  13% done.
  27% done.
  39% done.
  54% done.
  70% done.
  90% done.
 100% done.
 CPU time [min]:     2.665                   Wall time [min]:     0.050
 
 Gradient norm:      1.2910E-03
 DIIS is running in this iteration step.
 RMS of [F,P]:                                         0.00001017947395
 RMS of difference density:                            0.00002264505014
 Gap [au]:  0.45113594
 ALPHA OCC:   5
 BETA  OCC:   5
 
 ***HARTREE-FOCK ENERGY IN STEP   5 IS        -56.2233691527881376 [AU]
 
 Step comparison  Energy Drift [au]  DIIS error drift  Gradient drift
        4            1.8407E-05         1.0499E-05       2.8064E-03
 ======================================================================
 ITERATION STEP   6
 CPU time [min]:     2.704                   Wall time [min]:     0.051
 

 SCF control                  : diis
 Damping factor/level shift   : 0.000/0.000
 DIIS [start/end/frequency]   :   2 /200 /  1

 Constructing Fock-matrix...
 
 Pipek-Mezey localization...
 Step  Convergence
   1   0.029951996593
   2   0.036879991439
   3   0.000653839372
   4   0.000003025709
   5   0.000000023241
   6   0.000000000238
   7   0.000000000002
   8   0.000000000000
 CPU time [min]:     2.729                   Wall time [min]:     0.051
 
 Constructing local fitting domains...
 Local fitting domains are unchanged.
 
 First step of Coulomb + first step of exchange...
 Exchange contribution is evaluated for MOs 1 to 5.
   2% done.
  13% done.
  27% done.
  39% done.
  54% done.
  70% done.
  90% done.
 100% done.
 Fitting and assembly step of exchange...
 CPU time [min]:     3.031                   Wall time [min]:     0.056
 
 Second step of Coulomb...
   2% done.
  13% done.
  27% done.
  39% done.
  54% done.
  70% done.
  90% done.
 100% done.
 CPU time [min]:     3.186                   Wall time [min]:     0.058
 
 Gradient norm:      3.1846E-04
 DIIS is running in this iteration step.
 RMS of [F,P]:                                         0.00000153305149
 RMS of difference density:                            0.00000691760817
 Gap [au]:  0.45096270
 ALPHA OCC:   5
 BETA  OCC:   5
 
 ***HARTREE-FOCK ENERGY IN STEP   6 IS        -56.2233730324078209 [AU]
 
 Step comparison  Energy Drift [au]  DIIS error drift  Gradient drift
        5            3.8796E-06         8.6464E-06       9.7249E-04
 ======================================================================
 ITERATION STEP   7
 CPU time [min]:     3.224                   Wall time [min]:     0.059
 

 SCF control                  : diis
 Damping factor/level shift   : 0.000/0.000
 DIIS [start/end/frequency]   :   2 /200 /  1

 Constructing Fock-matrix...
 
 Pipek-Mezey localization...
 Step  Convergence
   1   0.040972299033
   2   0.050089482620
   3   0.000996930828
   4   0.000003101915
   5   0.000000020198
   6   0.000000000110
   7   0.000000000001
   8   0.000000000000
 CPU time [min]:     3.249                   Wall time [min]:     0.060
 
 Constructing local fitting domains...
 Local fitting domains are unchanged.
 
 First step of Coulomb + first step of exchange...
 Exchange contribution is evaluated for MOs 1 to 5.
   2% done.
  13% done.
  27% done.
  39% done.
  54% done.
  70% done.
  90% done.
 100% done.
 Fitting and assembly step of exchange...
 CPU time [min]:     3.549                   Wall time [min]:     0.064
 
 Second step of Coulomb...
   2% done.
  13% done.
  27% done.
  39% done.
  54% done.
  70% done.
  90% done.
 100% done.
 CPU time [min]:     3.704                   Wall time [min]:     0.067
 
 Gradient norm:      4.4384E-05
 DIIS is running in this iteration step.
 RMS of [F,P]:                                         0.00000021734343
 RMS of difference density:                            0.00000052727595
 Gap [au]:  0.45095686
 ALPHA OCC:   5
 BETA  OCC:   5
 
 ***HARTREE-FOCK ENERGY IN STEP   7 IS        -56.2233731124361356 [AU]
 
 Step comparison  Energy Drift [au]  DIIS error drift  Gradient drift
        6            8.0028E-08         1.3157E-06       2.7408E-04
 ======================================================================
 ITERATION STEP   8
 CPU time [min]:     3.745                   Wall time [min]:     0.067
 

 SCF control                  : diis
 Damping factor/level shift   : 0.000/0.000
 DIIS [start/end/frequency]   :   2 /200 /  1

 Constructing Fock-matrix...
 
 Pipek-Mezey localization...
 Step  Convergence
   1   0.040547582319
   2   0.049890458145
   3   0.000986710554
   4   0.000002841915
   5   0.000000019295
   6   0.000000000076
   7   0.000000000001
 CPU time [min]:     3.771                   Wall time [min]:     0.068
 
 Constructing local fitting domains...
 Local fitting domains are unchanged.
 
 First step of Coulomb + first step of exchange...
 Exchange contribution is evaluated for MOs 1 to 5.
   2% done.
  13% done.
  27% done.
  39% done.
  54% done.
  70% done.
  90% done.
 100% done.
 Fitting and assembly step of exchange...
 CPU time [min]:     4.074                   Wall time [min]:     0.073
 
 Second step of Coulomb...
   2% done.
  13% done.
  27% done.
  39% done.
  54% done.
  70% done.
  90% done.
 100% done.
 CPU time [min]:     4.229                   Wall time [min]:     0.075
 
 Gradient norm:      1.6788E-05
 DIIS is running in this iteration step.
 RMS of [F,P]:                                         0.00000007654364
 RMS of difference density:                            0.00000022337365
 Gap [au]:  0.45095687
 ALPHA OCC:   5
 BETA  OCC:   5
 
 ***HARTREE-FOCK ENERGY IN STEP   8 IS        -56.2233731152673784 [AU]
 
 Step comparison  Energy Drift [au]  DIIS error drift  Gradient drift
        7            2.8312E-09         1.4080E-07       2.7596E-05
 ======================================================================
 ITERATION STEP   9
 CPU time [min]:     4.270                   Wall time [min]:     0.076
 

 SCF control                  : diis
 Damping factor/level shift   : 0.000/0.000
 DIIS [start/end/frequency]   :   2 /200 /  1

 Constructing Fock-matrix...
 
 Pipek-Mezey localization...
 Step  Convergence
   1   0.041462560191
   2   0.049437858481
   3   0.000915094423
   4   0.000003533464
   5   0.000000020572
   6   0.000000000087
   7   0.000000000001
   8   0.000000000000
 CPU time [min]:     4.295                   Wall time [min]:     0.076
 
 Constructing local fitting domains...
 Local fitting domains are unchanged.
 
 First step of Coulomb + first step of exchange...
 Exchange contribution is evaluated for MOs 1 to 5.
   2% done.
  13% done.
  27% done.
  39% done.
  54% done.
  70% done.
  90% done.
 100% done.
 Fitting and assembly step of exchange...
 CPU time [min]:     4.595                   Wall time [min]:     0.081
 
 Second step of Coulomb...
   2% done.
  13% done.
  27% done.
  39% done.
  54% done.
  70% done.
  90% done.
 100% done.
 CPU time [min]:     4.749                   Wall time [min]:     0.083
 
 Gradient norm:      3.9024E-06
 DIIS is running in this iteration step.
 RMS of [F,P]:                                         0.00000001793769
 RMS of difference density:                            0.00000004977126
 Gap [au]:  0.45095673
 ALPHA OCC:   5
 BETA  OCC:   5
 
 ***HARTREE-FOCK ENERGY IN STEP   9 IS        -56.2233731156221239 [AU]
 
 Step comparison  Energy Drift [au]  DIIS error drift  Gradient drift
        8            3.5475E-10         5.8606E-08       1.2885E-05
 ======================================================================
 ITERATION STEP  10
 CPU time [min]:     4.790                   Wall time [min]:     0.084
 

 SCF control                  : diis
 Damping factor/level shift   : 0.000/0.000
 DIIS [start/end/frequency]   :   2 /200 /  1

[...]
    5    1N4d-2        1N4d-1        1N4d0         1N4d+1        1N4d+2        1N5d-2        1N5d-1        1N5d0         1N5d+1        1N5d+2    
    6    1N6d-2        1N6d-1        1N6d0         1N6d+1        1N6d+2        1N1f-3        1N1f-2        1N1f-1        1N1f0         1N1f+1    
    7    1N1f+2        1N1f+3        1N2f-3        1N2f-2        1N2f-1        1N2f0         1N2f+1        1N2f+2        1N2f+3        1N3f-3    
    8    1N3f-2        1N3f-1        1N3f0         1N3f+1        1N3f+2        1N3f+3        1N4f-3        1N4f-2        1N4f-1        1N4f0     
    9    1N4f+1        1N4f+2        1N4f+3        1N5f-3        1N5f-2        1N5f-1        1N5f0         1N5f+1        1N5f+2        1N5f+3    
   10    1N1g-4        1N1g-3        1N1g-2        1N1g-1        1N1g0         1N1g+1        1N1g+2        1N1g+3        1N1g+4        1N2g-4    
   11    1N2g-3        1N2g-2        1N2g-1        1N2g0         1N2g+1        1N2g+2        1N2g+3        1N2g+4        1N3g-4        1N3g-3    
   12    1N3g-2        1N3g-1        1N3g0         1N3g+1        1N3g+2        1N3g+3        1N3g+4        1N4g-4        1N4g-3        1N4g-2    
   13    1N4g-1        1N4g0         1N4g+1        1N4g+2        1N4g+3        1N4g+4        1N1h-5        1N1h-4        1N1h-3        1N1h-2    
   14    1N1h-1        1N1h0         1N1h+1        1N1h+2        1N1h+3        1N1h+4        1N1h+5        1N2h-5        1N2h-4        1N2h-3    
   15    1N2h-2        1N2h-1        1N2h0         1N2h+1        1N2h+2        1N2h+3        1N2h+4        1N2h+5        1N3h-5        1N3h-4    
   16    1N3h-3        1N3h-2        1N3h-1        1N3h0         1N3h+1        1N3h+2        1N3h+3        1N3h+4        1N3h+5        1N1i-6    
   17    1N1i-5        1N1i-4        1N1i-3        1N1i-2        1N1i-1        1N1i0         1N1i+1        1N1i+2        1N1i+3        1N1i+4    
   18    1N1i+5        1N1i+6        1N2i-6        1N2i-5        1N2i-4        1N2i-3        1N2i-2        1N2i-1        1N2i0         1N2i+1    
   19    1N2i+2        1N2i+3        1N2i+4        1N2i+5        1N2i+6        2H1s          2H2s          2H3s          2H4s          2H5s      
   20    2H1pz         2H1py         2H1px         2H2pz         2H2py         2H2px         2H3pz         2H3py         2H3px         2H4pz     
   21    2H4py         2H4px         2H1d-2        2H1d-1        2H1d0         2H1d+1        2H1d+2        2H2d-2        2H2d-1        2H2d0     
   22    2H2d+1        2H2d+2        2H3d-2        2H3d-1        2H3d0         2H3d+1        2H3d+2        2H4d-2        2H4d-1        2H4d0     
   23    2H4d+1        2H4d+2        2H5d-2        2H5d-1        2H5d0         2H5d+1        2H5d+2        2H1f-3        2H1f-2        2H1f-1    
   24    2H1f0         2H1f+1        2H1f+2        2H1f+3        2H2f-3        2H2f-2        2H2f-1        2H2f0         2H2f+1        2H2f+2    
   25    2H2f+3        2H3f-3        2H3f-2        2H3f-1        2H3f0         2H3f+1        2H3f+2        2H3f+3        2H4f-3        2H4f-2    
   26    2H4f-1        2H4f0         2H4f+1        2H4f+2        2H4f+3        2H1g-4        2H1g-3        2H1g-2        2H1g-1        2H1g0     
   27    2H1g+1        2H1g+2        2H1g+3        2H1g+4        2H2g-4        2H2g-3        2H2g-2        2H2g-1        2H2g0         2H2g+1    
   28    2H2g+2        2H2g+3        2H2g+4        2H3g-4        2H3g-3        2H3g-2        2H3g-1        2H3g0         2H3g+1        2H3g+2    
   29    2H3g+3        2H3g+4        2H1h-5        2H1h-4        2H1h-3        2H1h-2        2H1h-1        2H1h0         2H1h+1        2H1h+2    
   30    2H1h+3        2H1h+4        2H1h+5        2H2h-5        2H2h-4        2H2h-3        2H2h-2        2H2h-1        2H2h0         2H2h+1    
   31    2H2h+2        2H2h+3        2H2h+4        2H2h+5        3H1s          3H2s          3H3s          3H4s          3H5s          3H1pz     
   32    3H1py         3H1px         3H2pz         3H2py         3H2px         3H3pz         3H3py         3H3px         3H4pz         3H4py     
   33    3H4px         3H1d-2        3H1d-1        3H1d0         3H1d+1        3H1d+2        3H2d-2        3H2d-1        3H2d0         3H2d+1    
   34    3H2d+2        3H3d-2        3H3d-1        3H3d0         3H3d+1        3H3d+2        3H4d-2        3H4d-1        3H4d0         3H4d+1    
   35    3H4d+2        3H5d-2        3H5d-1        3H5d0         3H5d+1        3H5d+2        3H1f-3        3H1f-2        3H1f-1        3H1f0     
   36    3H1f+1        3H1f+2        3H1f+3        3H2f-3        3H2f-2        3H2f-1        3H2f0         3H2f+1        3H2f+2        3H2f+3    
   37    3H3f-3        3H3f-2        3H3f-1        3H3f0         3H3f+1        3H3f+2        3H3f+3        3H4f-3        3H4f-2        3H4f-1    
   38    3H4f0         3H4f+1        3H4f+2        3H4f+3        3H1g-4        3H1g-3        3H1g-2        3H1g-1        3H1g0         3H1g+1    
   39    3H1g+2        3H1g+3        3H1g+4        3H2g-4        3H2g-3        3H2g-2        3H2g-1        3H2g0         3H2g+1        3H2g+2    
   40    3H2g+3        3H2g+4        3H3g-4        3H3g-3        3H3g-2        3H3g-1        3H3g0         3H3g+1        3H3g+2        3H3g+3    
   41    3H3g+4        3H1h-5        3H1h-4        3H1h-3        3H1h-2        3H1h-1        3H1h0         3H1h+1        3H1h+2        3H1h+3    
   42    3H1h+4        3H1h+5        3H2h-5        3H2h-4        3H2h-3        3H2h-2        3H2h-1        3H2h0         3H2h+1        3H2h+2    
   43    3H2h+3        3H2h+4        3H2h+5        4H1s          4H2s          4H3s          4H4s          4H5s          4H1pz         4H1py     
   44    4H1px         4H2pz         4H2py         4H2px         4H3pz         4H3py         4H3px         4H4pz         4H4py         4H4px     
   45    4H1d-2        4H1d-1        4H1d0         4H1d+1        4H1d+2        4H2d-2        4H2d-1        4H2d0         4H2d+1        4H2d+2    
   46    4H3d-2        4H3d-1        4H3d0         4H3d+1        4H3d+2        4H4d-2        4H4d-1        4H4d0         4H4d+1        4H4d+2    
   47    4H5d-2        4H5d-1        4H5d0         4H5d+1        4H5d+2        4H1f-3        4H1f-2        4H1f-1        4H1f0         4H1f+1    
   48    4H1f+2        4H1f+3        4H2f-3        4H2f-2        4H2f-1        4H2f0         4H2f+1        4H2f+2        4H2f+3        4H3f-3    
   49    4H3f-2        4H3f-1        4H3f0         4H3f+1        4H3f+2        4H3f+3        4H4f-3        4H4f-2        4H4f-1        4H4f0     
   50    4H4f+1        4H4f+2        4H4f+3        4H1g-4        4H1g-3        4H1g-2        4H1g-1        4H1g0         4H1g+1        4H1g+2    
   51    4H1g+3        4H1g+4        4H2g-4        4H2g-3        4H2g-2        4H2g-1        4H2g0         4H2g+1        4H2g+2        4H2g+3    
   52    4H2g+4        4H3g-4        4H3g-3        4H3g-2        4H3g-1        4H3g0         4H3g+1        4H3g+2        4H3g+3        4H3g+4    
   53    4H1h-5        4H1h-4        4H1h-3        4H1h-2        4H1h-1        4H1h0         4H1h+1        4H1h+2        4H1h+3        4H1h+4    
   54    4H1h+5        4H2h-5        4H2h-4        4H2h-3        4H2h-2        4H2h-1        4H2h0         4H2h+1        4H2h+2        4H2h+3    
   55    4H2h+4        4H2h+5    
 
 Maximum number of basis functions per shell:   36
 Total number of basis functions:    552
 
 
 Fitting basis set for the correlation calculation:
 
   1  N  aug-cc-pv5z-ri [ 11s 9p 8d 7f 5g 4h 2i | 11s 9p 8d 7f 5g 4h 2i ]
   2  H  aug-cc-pv5z-ri [ 7s 6p 5d 4f 3g 2h | 7s 6p 5d 4f 3g 2h ]
   3  H  aug-cc-pv5z-ri [ 7s 6p 5d 4f 3g 2h | 7s 6p 5d 4f 3g 2h ]
   4  H  aug-cc-pv5z-ri [ 7s 6p 5d 4f 3g 2h | 7s 6p 5d 4f 3g 2h ]
 
 Basis functions:
            1             2             3             4             5             6             7             8             9            10
    0    1N1s          1N2s          1N3s          1N4s          1N5s          1N6s          1N7s          1N8s          1N9s          1N10s     
    1    1N11s         1N1pz         1N1py         1N1px         1N2pz         1N2py         1N2px         1N3pz         1N3py         1N3px     
    2    1N4pz         1N4py         1N4px         1N5pz         1N5py         1N5px         1N6pz         1N6py         1N6px         1N7pz     
    3    1N7py         1N7px         1N8pz         1N8py         1N8px         1N9pz         1N9py         1N9px         1N1d-2        1N1d-1    
    4    1N1d0         1N1d+1        1N1d+2        1N2d-2        1N2d-1        1N2d0         1N2d+1        1N2d+2        1N3d-2        1N3d-1    
    5    1N3d0         1N3d+1        1N3d+2        1N4d-2        1N4d-1        1N4d0         1N4d+1        1N4d+2        1N5d-2        1N5d-1    
    6    1N5d0         1N5d+1        1N5d+2        1N6d-2        1N6d-1        1N6d0         1N6d+1        1N6d+2        1N7d-2        1N7d-1    
    7    1N7d0         1N7d+1        1N7d+2        1N8d-2        1N8d-1        1N8d0         1N8d+1        1N8d+2        1N1f-3        1N1f-2    
    8    1N1f-1        1N1f0         1N1f+1        1N1f+2        1N1f+3        1N2f-3        1N2f-2        1N2f-1        1N2f0         1N2f+1    
    9    1N2f+2        1N2f+3        1N3f-3        1N3f-2        1N3f-1        1N3f0         1N3f+1        1N3f+2        1N3f+3        1N4f-3    
   10    1N4f-2        1N4f-1        1N4f0         1N4f+1        1N4f+2        1N4f+3        1N5f-3        1N5f-2        1N5f-1        1N5f0     
   11    1N5f+1        1N5f+2        1N5f+3        1N6f-3        1N6f-2        1N6f-1        1N6f0         1N6f+1        1N6f+2        1N6f+3    
   12    1N7f-3        1N7f-2        1N7f-1        1N7f0         1N7f+1        1N7f+2        1N7f+3        1N1g-4        1N1g-3        1N1g-2    
   13    1N1g-1        1N1g0         1N1g+1        1N1g+2        1N1g+3        1N1g+4        1N2g-4        1N2g-3        1N2g-2        1N2g-1    
   14    1N2g0         1N2g+1        1N2g+2        1N2g+3        1N2g+4        1N3g-4        1N3g-3        1N3g-2        1N3g-1        1N3g0     
   15    1N3g+1        1N3g+2        1N3g+3        1N3g+4        1N4g-4        1N4g-3        1N4g-2        1N4g-1        1N4g0         1N4g+1    
   16    1N4g+2        1N4g+3        1N4g+4        1N5g-4        1N5g-3        1N5g-2        1N5g-1        1N5g0         1N5g+1        1N5g+2    
   17    1N5g+3        1N5g+4        1N1h-5        1N1h-4        1N1h-3        1N1h-2        1N1h-1        1N1h0         1N1h+1        1N1h+2    
   18    1N1h+3        1N1h+4        1N1h+5        1N2h-5        1N2h-4        1N2h-3        1N2h-2        1N2h-1        1N2h0         1N2h+1    
   19    1N2h+2        1N2h+3        1N2h+4        1N2h+5        1N3h-5        1N3h-4        1N3h-3        1N3h-2        1N3h-1        1N3h0     
   20    1N3h+1        1N3h+2        1N3h+3        1N3h+4        1N3h+5        1N4h-5        1N4h-4        1N4h-3        1N4h-2        1N4h-1    
   21    1N4h0         1N4h+1        1N4h+2        1N4h+3        1N4h+4        1N4h+5        1N1i-6        1N1i-5        1N1i-4        1N1i-3    
   22    1N1i-2        1N1i-1        1N1i0         1N1i+1        1N1i+2        1N1i+3        1N1i+4        1N1i+5        1N1i+6        1N2i-6    
   23    1N2i-5        1N2i-4        1N2i-3        1N2i-2        1N2i-1        1N2i0         1N2i+1        1N2i+2        1N2i+3        1N2i+4    
   24    1N2i+5        1N2i+6        2H1s          2H2s          2H3s          2H4s          2H5s          2H6s          2H7s          2H1pz     
   25    2H1py         2H1px         2H2pz         2H2py         2H2px         2H3pz         2H3py         2H3px         2H4pz         2H4py     
   26    2H4px         2H5pz         2H5py         2H5px         2H6pz         2H6py         2H6px         2H1d-2        2H1d-1        2H1d0     
   27    2H1d+1        2H1d+2        2H2d-2        2H2d-1        2H2d0         2H2d+1        2H2d+2        2H3d-2        2H3d-1        2H3d0     
   28    2H3d+1        2H3d+2        2H4d-2        2H4d-1        2H4d0         2H4d+1        2H4d+2        2H5d-2        2H5d-1        2H5d0     
   29    2H5d+1        2H5d+2        2H1f-3        2H1f-2        2H1f-1        2H1f0         2H1f+1        2H1f+2        2H1f+3        2H2f-3    
   30    2H2f-2        2H2f-1        2H2f0         2H2f+1        2H2f+2        2H2f+3        2H3f-3        2H3f-2        2H3f-1        2H3f0     
   31    2H3f+1        2H3f+2        2H3f+3        2H4f-3        2H4f-2        2H4f-1        2H4f0         2H4f+1        2H4f+2        2H4f+3    
   32    2H1g-4        2H1g-3        2H1g-2        2H1g-1        2H1g0         2H1g+1        2H1g+2        2H1g+3        2H1g+4        2H2g-4    
   33    2H2g-3        2H2g-2        2H2g-1        2H2g0         2H2g+1        2H2g+2        2H2g+3        2H2g+4        2H3g-4        2H3g-3    
   34    2H3g-2        2H3g-1        2H3g0         2H3g+1        2H3g+2        2H3g+3        2H3g+4        2H1h-5        2H1h-4        2H1h-3    
   35    2H1h-2        2H1h-1        2H1h0         2H1h+1        2H1h+2        2H1h+3        2H1h+4        2H1h+5        2H2h-5        2H2h-4    
   36    2H2h-3        2H2h-2        2H2h-1        2H2h0         2H2h+1        2H2h+2        2H2h+3        2H2h+4        2H2h+5        3H1s      
   37    3H2s          3H3s          3H4s          3H5s          3H6s          3H7s          3H1pz         3H1py         3H1px         3H2pz     
   38    3H2py         3H2px         3H3pz         3H3py         3H3px         3H4pz         3H4py         3H4px         3H5pz         3H5py     
   39    3H5px         3H6pz         3H6py         3H6px         3H1d-2        3H1d-1        3H1d0         3H1d+1        3H1d+2        3H2d-2    
   40    3H2d-1        3H2d0         3H2d+1        3H2d+2        3H3d-2        3H3d-1        3H3d0         3H3d+1        3H3d+2        3H4d-2    
   41    3H4d-1        3H4d0         3H4d+1        3H4d+2        3H5d-2        3H5d-1        3H5d0         3H5d+1        3H5d+2        3H1f-3    
   42    3H1f-2        3H1f-1        3H1f0         3H1f+1        3H1f+2        3H1f+3        3H2f-3        3H2f-2        3H2f-1        3H2f0     
   43    3H2f+1        3H2f+2        3H2f+3        3H3f-3        3H3f-2        3H3f-1        3H3f0         3H3f+1        3H3f+2        3H3f+3    
   44    3H4f-3        3H4f-2        3H4f-1        3H4f0         3H4f+1        3H4f+2        3H4f+3        3H1g-4        3H1g-3        3H1g-2    
   45    3H1g-1        3H1g0         3H1g+1        3H1g+2        3H1g+3        3H1g+4        3H2g-4        3H2g-3        3H2g-2        3H2g-1    
   46    3H2g0         3H2g+1        3H2g+2        3H2g+3        3H2g+4        3H3g-4        3H3g-3        3H3g-2        3H3g-1        3H3g0     
   47    3H3g+1        3H3g+2        3H3g+3        3H3g+4        3H1h-5        3H1h-4        3H1h-3        3H1h-2        3H1h-1        3H1h0     
   48    3H1h+1        3H1h+2        3H1h+3        3H1h+4        3H1h+5        3H2h-5        3H2h-4        3H2h-3        3H2h-2        3H2h-1    
   49    3H2h0         3H2h+1        3H2h+2        3H2h+3        3H2h+4        3H2h+5        4H1s          4H2s          4H3s          4H4s      
   50    4H5s          4H6s          4H7s          4H1pz         4H1py         4H1px         4H2pz         4H2py         4H2px         4H3pz     
   51    4H3py         4H3px         4H4pz         4H4py         4H4px         4H5pz         4H5py         4H5px         4H6pz         4H6py     
   52    4H6px         4H1d-2        4H1d-1        4H1d0         4H1d+1        4H1d+2        4H2d-2        4H2d-1        4H2d0         4H2d+1    
   53    4H2d+2        4H3d-2        4H3d-1        4H3d0         4H3d+1        4H3d+2        4H4d-2        4H4d-1        4H4d0         4H4d+1    
   54    4H4d+2        4H5d-2        4H5d-1        4H5d0         4H5d+1        4H5d+2        4H1f-3        4H1f-2        4H1f-1        4H1f0     
   55    4H1f+1        4H1f+2        4H1f+3        4H2f-3        4H2f-2        4H2f-1        4H2f0         4H2f+1        4H2f+2        4H2f+3    
   56    4H3f-3        4H3f-2        4H3f-1        4H3f0         4H3f+1        4H3f+2        4H3f+3        4H4f-3        4H4f-2        4H4f-1    
   57    4H4f0         4H4f+1        4H4f+2        4H4f+3        4H1g-4        4H1g-3        4H1g-2        4H1g-1        4H1g0         4H1g+1    
   58    4H1g+2        4H1g+3        4H1g+4        4H2g-4        4H2g-3        4H2g-2        4H2g-1        4H2g0         4H2g+1        4H2g+2    
   59    4H2g+3        4H2g+4        4H3g-4        4H3g-3        4H3g-2        4H3g-1        4H3g0         4H3g+1        4H3g+2        4H3g+3    
   60    4H3g+4        4H1h-5        4H1h-4        4H1h-3        4H1h-2        4H1h-1        4H1h0         4H1h+1        4H1h+2        4H1h+3    
   61    4H1h+4        4H1h+5        4H2h-5        4H2h-4        4H2h-3        4H2h-2        4H2h-1        4H2h0         4H2h+1        4H2h+2    
   62    4H2h+3        4H2h+4        4H2h+5    
 
 Maximum number of basis functions per shell:   49
 Total number of basis functions:    623
 
 
 Old basis set for SCF restart
 
   1  N  def2-svp [ 7s 4p 1d | 3s 2p 1d ]
   2  H  def2-svp [ 4s 1p | 2s 1p ]
   3  H  def2-svp [ 4s 1p | 2s 1p ]
   4  H  def2-svp [ 4s 1p | 2s 1p ]
 
 Basis functions:
            1             2             3             4             5             6             7             8             9            10
    0    1N1s          1N2s          1N3s          1N1pz         1N1py         1N1px         1N2pz         1N2py         1N2px         1N1d-2    
    1    1N1d-1        1N1d0         1N1d+1        1N1d+2        2H1s          2H2s          2H1pz         2H1py         2H1px         3H1s      
    2    3H2s          3H1pz         3H1py         3H1px         4H1s          4H2s          4H1pz         4H1py         4H1px     
 
 Maximum number of basis functions per shell:   49
 Total number of basis functions:     29
 
 
 Calculation of prescreening integrals...
 CPU time [min]:     1.296                   Wall time [min]:     0.024
 
 Calculation of two-center Coulomb integrals...
   2% done.
  15% done.
  26% done.
  40% done.
  52% done.
  63% done.
  77% done.
  93% done.
 100% done.
 CPU time [min]:     1.315                   Wall time [min]:     0.024
 
 Cholesky decomposition of the inverse of the two-center matrix...
 CPU time [min]:     1.344                   Wall time [min]:     0.024
 
 Calculation of three-center Coulomb integrals...
   2% done.
  13% done.
  27% done.
  39% done.
  54% done.
  70% done.
  90% done.
 100% done.
 CPU time [min]:     4.799                   Wall time [min]:     0.079

 ************************ 2026-02-26 16:04:37 *************************
 Executing drpa...

 Three-index integral transformation and DF-MP2 calculation
 Allocation of 46.0 Gbytes of memory...
 
 Minimal memory requirement for (ai|P) integrals:       13.2 MB

 Calculating (ai|P) integrals...
 Number of integral batches:    1
 Occupied indices per batch:    4
 
 Transforming integrals of batch 1...
 CPU time [min]:     0.483                   Wall time [min]:     0.019
 
 
 
 Reference energy [au]:                       -56.223373115646
 DF-MP2 singlet pair energy [au]:              -0.204647277869
 DF-MP2 triplet pair energy [au]:              -0.055096328374
 DF-SCS-MP2 correlation energy [au]:           -0.263942176234
 DF-SCS-MP2 energy [au]:                      -56.487315291879
 DF-SOS-MP2 correlation energy [au]:           -0.266041461230
 DF-SOS-MP2 energy [au]:                      -56.489414576875
 DF-MP2 correlation energy [au]:               -0.259743606242
 DF-MP2 energy [au]:                          -56.483116721888
 
 ************************ 2026-02-26 16:04:38 *************************
                      Normal termination of mrcc.
 **********************************************************************
