 **********************************************************************
                          MRCC program system
 **********************************************************************
 
                              Written by
     Mihaly Kallay, Peter R. Nagy, David Mester, Laszlo Gyevi-Nagy,
        Jozsef Csoka, P. Bernat Szabo, Zoltan Rolik, Gyula Samu,
     Jozsef Csontos, Bence Hegely, Adam Ganyecz, Istvan Ladjanszki,
       Lorant Szegedy, Bence Ladoczki, Klara Petrov, Mate Farkas,
                    Pal D. Mezei, and Reka A. Horvath
 
        Department of Physical Chemistry and Materials Science
            Budapest University of Technology and Economics
                  Budapest P.O.Box 91, H-1521 Hungary
 
                              www.mrcc.hu
 
                     Release date: August 28, 2023

 ************************ 2026-02-26 16:16:08 *************************
 Executing minp...

 Reading input from MINP...
 
 Input file:
 
charge=0
mult=1
calc=LNO-CCSD(T)
basis=aug-cc-pVTZ
symm=off
verbosity=3
unit=angs
scfalg=locfit1
scfmaxit=200
scftol=8
basis_sm=def2-SVP
usedisk=0
aocd=extra
chtol=1d-6
iesttol=0.001
scfiguess=small
lcorthr=tight
mem=46GB
ghost=serialno
1-4

geom=xyz
8

N      1.04470516527    1.04467805385    1.04472620470
H      1.86198065727    1.39631551807    0.53263274880
H      1.39638040304    0.53260276511    1.86208371977
H      0.53256262530    1.86191282917    1.39633599251
N      3.60995473454    1.52057191074    4.08577558721
H      4.42722968319    1.16893531034    4.59786809656
H      3.96163147006    2.03264798552    3.26841604077
H      3.09781293566    0.70333789254    3.73416418411
 
 
 Checking keyword combinations...
 
 Keywords:
 
 active=none
 agrid=ld0006-ld0590
 agrid_pssp=ld0006-ld0194
 agrid_pssp_sm=ld0006-ld0074
 basis=aug-cc-pvtz
 basis_sm=def2-svp
 basopt=off
 bfbasis=none
 bfgsmem=10
 bfgstol=1.0d-3
 boysalg=jacobi
 bpcompo=0.985
 bpcompv=0.98
 bpdfo=0.985
 bpocc=0.99995d0
 bppdo=0.999d0
 bppdv=0.98
 bpedo=0.99995d0
 bpedv=0.995d0
 calc=ccsd(t)
 ccmaxit=50
 ccprog=ccsd
 ccsdalg=dfdirect
 ccsdmkl=seq
 ccsdrest=off
 ccsdthreads=2
 cctol=5
 charge=0
 cialg=direct
 ciguess=off
 cmpgrp=auto
 comprest=off
 coord_sys=ric
 core=frozen
 corembed=off
 csapprox=off
 cvs=off
 dboc=off
 delocsomofact=
 dendec=cholesky
 dens=0
 denscorr=0
 dfalg=lineq
 dfbasis_cab=none
 dfbasis_cor=auto
 dfbasis_scf=auto
 dfbasis_scf_sm=auto
 dfintran=drpa
 dft=off
 dhexc=adc(2)
 diag=david
 docc=
 domrad=10.d0
 drpaalg=auto
 dual=off
 dual_df=off
 ecp=auto
 edisp=off
 edisp_embed=off
 embed=off
 epairestfact=off
 epairscale=1.d0
 etemp=300
 epert=none
 eps=
 espcharge=off
 excrad=1.0
 excrad_fin=0.100000000D-02
 fitting=coulomb
 fmm=off
 fmmord=8
 fnonorb=
 freq=off
 gamma=1.1d0
 gauss=spher
 geom=xyz
 gopt=off
 ghost=serialno
 gtol=7
 grdens=off
 grid=auto
 grid_sm=auto
 gridbatch_cos=2000
 grtol=10
 guido_ct=off
 hamilton=dc
 iface=none
 intalg=auto
 ip_ea=off
 itol=12
 laptol=1.d-3
 lccoporder=lccfirst
 lcorthr=tight
 lccrest=off
 ldfgrad_tol=8
 lmp2dens=on
 lnoepso=3e-6
 lnoepsv=3e-7
 localcc=2021
 localcorrsymm=off
 locintrf=direct
 mact=
 maxact=off
 maxdim=200
 maxex=0
 maxmicroit=100
 mcscfiguess=hf
 mem=46gb
 mmprog=
 molden=on
 mpitasks=1
 mulmet=3
 mult=1
 nab=off
 nacto=0
 nactv=0
 naf_amp=3.16d-3
 naf_cor=1e-2
 naf_f12=off
 naf_scf=off
 nafalg=albe
 nafdens=off
 naftyp=jpq
 nchol=auto
 ndeps=1e-3
 nstate=1
 nsing=0
 nto=off
 ntrip=0
 num_grad=off
 occ=
 occri=off
 oniom=off
 oniom_eechg=off
 oniom_pcm=off
 oniom_qcorr=off
 optalg=
 optmaxit=50
 optetol=1e-6
 optex=0
 optgtol=1e-4
 optstol=1e-3
 orblocc=off
 orbloce=off
 orbloco=boys
 orblocv=pao
 orblocguess=cholesky
 osveps=-1.d0
 ovirt=off
 ovltol=1e-7
 ovosnorb=80.0
 pao_subsys_tol=1e-3
 pcm=off
 popul=off
 pressure=100000
 pssp=off
 ptfreq=0.0
 ptthreads=2
 qmreg=
 qmmm=off
 qro=off
 qscf=off
 redcost_exc=off
 redcost_tddft=0.985d0
 refdet=none
 rest=0
 rgrid=log3
 rism=off
 rohfcore=standard
 rohftype=semicanonical
 scfalg=locfit1
 scf_conv=auto
 scfdamp=0.0d0
 scfdamp_mode=off
 scfdamp_end=200
 scfdamp_dampstep=0.d0
 scfdamp_dtol=0.0d0
 scfdamp_maxfact=0.0d0
 scfdamp_minfact=0.0d0
 scfdiis=on
 scfdiis_dtol=0.0d0
 scfdiis_end=200
 scfdiis_start=2
 scfdiis_step=1
 scfdiis_watch=off
 scfdiis_wrange=10
 scfdiis_wlimit=5
 scfdiis_delmax=2
 scfdtol=9
 scfext=10
 scfguessdens=
 scfiguess=small
 scfloc=pm
 scflshift=0.20
 scflshift_end=8
 scflshift_dtol=0.0
 scflshift_gaptol=0.20
 scfmaxit=200
 scftype=
 scftol=8
 scspe=1.d0
 scsph=1.d0
 scsps=1.2d0
 scsps_t=1.2d0
 scspt=0.33333333333333
 scspt_t=0.33333333333333
 scspv=1.d0
 spairtol=-1.d0
 sqmprog=
 subminp=top
 symm=0
 talg=lapl
 temp=298.15
 test=off
 theodore=off
 tlmo=0.999
 tpao=0.94
 tprint=off
 uncontract=off
 unit=angs
 usedisk=0
 verbosity=3
 wpairtol=3.d-6
 
 Calculating integrals for small-basis SCF...

 ************************ 2026-02-26 16:16:08 *************************
 Executing integ...

 Allocation of 46.0 Gbytes of memory...
 
 
 Number of atoms:                  8
 Charge:                           0
 Number of electrons:             10
 Number of core electrons:         2
 Spin multiplicity:                1
 
                 Cartesian coordinates [bohr]      Atomic mass [AMU]  Z
   1  N     1.97420664    1.97415541    1.97424640     0.000000       0
   2  H     3.51863349    2.63865391    1.00653002     0.000000       0
   3  H     2.63877653    1.00647336    3.51882825     0.000000       0
   4  H     1.00639751    3.51850532    2.63869260     0.000000       0
   5  N     6.82182577    2.87346447    7.72099687    14.003074       7
   6  H     8.36625160    2.20896759    8.68871146     1.007825       1
   7  H     7.48639849    3.84114800    6.17641118     1.007825       1
   8  H     5.85401804    1.32911599    7.05654762     1.007825       1
 
 This molecule is an asymmetric top.
 
 Point group: C1  
 Computational point group: C1  
 
 Cartesian coordinates in standard orientation [bohr]
   1  N    -6.87805006   -0.06596900   -0.06867574
   2  H    -6.52945343    1.49640516   -1.16446536
   3  H    -5.37810074   -1.27440113   -0.30027584
   4  H    -6.86359711    0.51702427    1.78147827
   5  N     0.69092828   -0.00030177    0.13023020
   6  H     2.36301731   -0.36840472   -0.78185381
   7  H     0.06048385    1.72203084   -0.50216482
   8  H    -0.58978196   -1.33167638   -0.46169865
 
 Nuclear repulsion energy [au]:         11.785794585729
 
Warning: for H atoms in the case of dfbasis_scf=auto the AO basis is set as dfbasis_scf instead of def2-qzvp(pd)-ri-jk because the AO basis is larger. Set the dfbasis_scf=def2-qzvp(pd)-ri-jk in MINP if that is desired.
 
 
 Basis set information:
 
 Maximum angular momentum: g
 Maximum number of contracted Gaussians:   10
 Maximum number of primitive Gaussians:    14
 Spherical harmonic GTOs are used.
 
 
 Conventional basis set:
 
   1  N  def2-svp [ 7s 4p 1d | 3s 2p 1d ]
   2  H  def2-svp [ 4s 1p | 2s 1p ]
   3  H  def2-svp [ 4s 1p | 2s 1p ]
   4  H  def2-svp [ 4s 1p | 2s 1p ]
   5  N  def2-svp [ 7s 4p 1d | 3s 2p 1d ]
   6  H  def2-svp [ 4s 1p | 2s 1p ]
   7  H  def2-svp [ 4s 1p | 2s 1p ]
   8  H  def2-svp [ 4s 1p | 2s 1p ]
 
 Basis functions:
            1             2             3             4             5             6             7             8             9            10
    0    1N1s          1N2s          1N3s          1N1pz         1N1py         1N1px         1N2pz         1N2py         1N2px         1N1d-2    
    1    1N1d-1        1N1d0         1N1d+1        1N1d+2        2H1s          2H2s          2H1pz         2H1py         2H1px         3H1s      
    2    3H2s          3H1pz         3H1py         3H1px         4H1s          4H2s          4H1pz         4H1py         4H1px         5N1s      
    3    5N2s          5N3s          5N1pz         5N1py         5N1px         5N2pz         5N2py         5N2px         5N1d-2        5N1d-1    
    4    5N1d0         5N1d+1        5N1d+2        6H1s          6H2s          6H1pz         6H1py         6H1px         7H1s          7H2s      
    5    7H1pz         7H1py         7H1px         8H1s          8H2s          8H1pz         8H1py         8H1px     
 
 Maximum number of basis functions per shell:    6
 Total number of basis functions:     58
 
 
 Fitting basis set for the SCF calculation:
 
   1  N  def2-qzvpp-ri-jk [ 14s 10p 6d 2f 1g | 10s 8p 4d 2f 1g ]
   2  H  def2-qzvpp [ 7s 3p 2d 1f | 4s 3p 2d 1f ]
   3  H  def2-qzvpp [ 7s 3p 2d 1f | 4s 3p 2d 1f ]
   4  H  def2-qzvpp [ 7s 3p 2d 1f | 4s 3p 2d 1f ]
   5  N  def2-qzvpp-ri-jk [ 14s 10p 6d 2f 1g | 10s 8p 4d 2f 1g ]
   6  H  def2-qzvpp [ 7s 3p 2d 1f | 4s 3p 2d 1f ]
   7  H  def2-qzvpp [ 7s 3p 2d 1f | 4s 3p 2d 1f ]
   8  H  def2-qzvpp [ 7s 3p 2d 1f | 4s 3p 2d 1f ]
 
 Basis functions:
            1             2             3             4             5             6             7             8             9            10
    0    1N1s          1N2s          1N3s          1N4s          1N5s          1N6s          1N7s          1N8s          1N9s          1N10s     
    1    1N1pz         1N1py         1N1px         1N2pz         1N2py         1N2px         1N3pz         1N3py         1N3px         1N4pz     
    2    1N4py         1N4px         1N5pz         1N5py         1N5px         1N6pz         1N6py         1N6px         1N7pz         1N7py     
    3    1N7px         1N8pz         1N8py         1N8px         1N1d-2        1N1d-1        1N1d0         1N1d+1        1N1d+2        1N2d-2    
    4    1N2d-1        1N2d0         1N2d+1        1N2d+2        1N3d-2        1N3d-1        1N3d0         1N3d+1        1N3d+2        1N4d-2    
    5    1N4d-1        1N4d0         1N4d+1        1N4d+2        1N1f-3        1N1f-2        1N1f-1        1N1f0         1N1f+1        1N1f+2    
    6    1N1f+3        1N2f-3        1N2f-2        1N2f-1        1N2f0         1N2f+1        1N2f+2        1N2f+3        1N1g-4        1N1g-3    
    7    1N1g-2        1N1g-1        1N1g0         1N1g+1        1N1g+2        1N1g+3        1N1g+4        2H1s          2H2s          2H3s      
    8    2H4s          2H1pz         2H1py         2H1px         2H2pz         2H2py         2H2px         2H3pz         2H3py         2H3px     
    9    2H1d-2        2H1d-1        2H1d0         2H1d+1        2H1d+2        2H2d-2        2H2d-1        2H2d0         2H2d+1        2H2d+2    
   10    2H1f-3        2H1f-2        2H1f-1        2H1f0         2H1f+1        2H1f+2        2H1f+3        3H1s          3H2s          3H3s      
   11    3H4s          3H1pz         3H1py         3H1px         3H2pz         3H2py         3H2px         3H3pz         3H3py         3H3px     
   12    3H1d-2        3H1d-1        3H1d0         3H1d+1        3H1d+2        3H2d-2        3H2d-1        3H2d0         3H2d+1        3H2d+2    
   13    3H1f-3        3H1f-2        3H1f-1        3H1f0         3H1f+1        3H1f+2        3H1f+3        4H1s          4H2s          4H3s      
   14    4H4s          4H1pz         4H1py         4H1px         4H2pz         4H2py         4H2px         4H3pz         4H3py         4H3px     
   15    4H1d-2        4H1d-1        4H1d0         4H1d+1        4H1d+2        4H2d-2        4H2d-1        4H2d0         4H2d+1        4H2d+2    
   16    4H1f-3        4H1f-2        4H1f-1        4H1f0         4H1f+1        4H1f+2        4H1f+3        5N1s          5N2s          5N3s      
   17    5N4s          5N5s          5N6s          5N7s          5N8s          5N9s          5N10s         5N1pz         5N1py         5N1px     
   18    5N2pz         5N2py         5N2px         5N3pz         5N3py         5N3px         5N4pz         5N4py         5N4px         5N5pz     
   19    5N5py         5N5px         5N6pz         5N6py         5N6px         5N7pz         5N7py         5N7px         5N8pz         5N8py     
   20    5N8px         5N1d-2        5N1d-1        5N1d0         5N1d+1        5N1d+2        5N2d-2        5N2d-1        5N2d0         5N2d+1    
   21    5N2d+2        5N3d-2        5N3d-1        5N3d0         5N3d+1        5N3d+2        5N4d-2        5N4d-1        5N4d0         5N4d+1    
   22    5N4d+2        5N1f-3        5N1f-2        5N1f-1        5N1f0         5N1f+1        5N1f+2        5N1f+3        5N2f-3        5N2f-2    
   23    5N2f-1        5N2f0         5N2f+1        5N2f+2        5N2f+3        5N1g-4        5N1g-3        5N1g-2        5N1g-1        5N1g0     
   24    5N1g+1        5N1g+2        5N1g+3        5N1g+4        6H1s          6H2s          6H3s          6H4s          6H1pz         6H1py     
   25    6H1px         6H2pz         6H2py         6H2px         6H3pz         6H3py         6H3px         6H1d-2        6H1d-1        6H1d0     
   26    6H1d+1        6H1d+2        6H2d-2        6H2d-1        6H2d0         6H2d+1        6H2d+2        6H1f-3        6H1f-2        6H1f-1    
   27    6H1f0         6H1f+1        6H1f+2        6H1f+3        7H1s          7H2s          7H3s          7H4s          7H1pz         7H1py     
   28    7H1px         7H2pz         7H2py         7H2px         7H3pz         7H3py         7H3px         7H1d-2        7H1d-1        7H1d0     
   29    7H1d+1        7H1d+2        7H2d-2        7H2d-1        7H2d0         7H2d+1        7H2d+2        7H1f-3        7H1f-2        7H1f-1    
   30    7H1f0         7H1f+1        7H1f+2        7H1f+3        8H1s          8H2s          8H3s          8H4s          8H1pz         8H1py     
   31    8H1px         8H2pz         8H2py         8H2px         8H3pz         8H3py         8H3px         8H1d-2        8H1d-1        8H1d0     
   32    8H1d+1        8H1d+2        8H2d-2        8H2d-1        8H2d0         8H2d+1        8H2d+2        8H1f-3        8H1f-2        8H1f-1    
   33    8H1f0         8H1f+1        8H1f+2        8H1f+3    
 
 Maximum number of basis functions per shell:   24
 Total number of basis functions:    334
 
 
 Initializing the SAD routines for the initial guess...
 Checking the files required for the initial guess...
 Atomic density files have been found for the atoms with the following serial numbers:
  
 Atomic density files have not been found for the atoms with the following serial numbers:
  5 6 7 8
 Generating SCFDENSITIES.N.def2-svp.0
 Generating SCFDENSITIES.H.def2-svp.0
 CPU time [min]:     0.217                   Wall time [min]:     0.134
 
 Character table for point group C1:
 
          E  
    A     1
 
 Number of basis functions per irrep:
    A      58
 
 
 Calculation of overlap integrals...
 CPU time [min]:     0.219                   Wall time [min]:     0.134
 
 Calculation of the square root of the overlap matrix...
 Minimum eigenvalue of the overlap matrix: 0.241558E-01
 CPU time [min]:     0.231                   Wall time [min]:     0.134
 
 Calculation of kinetic energy integrals...
 CPU time [min]:     0.232                   Wall time [min]:     0.134
 Calculation of dipole moment integrals...
 CPU time [min]:     0.232                   Wall time [min]:     0.134
 Calculation of nuclear attraction integrals...
 CPU time [min]:     0.233                   Wall time [min]:     0.134
 
 Calculation of prescreening integrals...
 CPU time [min]:     0.244                   Wall time [min]:     0.134
 
 Calculation of two-center Coulomb integrals...
   1% done.
  13% done.
  25% done.
  36% done.
  50% done.
  64% done.
  79% done.
  90% done.
 100% done.
 CPU time [min]:     0.256                   Wall time [min]:     0.135
 
 Cholesky decomposition of the two-center matrix...
 Reciprocal of the condition number:  0.111352E-04
 CPU time [min]:     0.275                   Wall time [min]:     0.135
 
 
 Running small-basis SCF...

 ************************ 2026-02-26 16:16:16 *************************
 Executing scf...

 @scfsetup: integrals calculated directly
            mrcc/integ direct run
 @scfsetup: calculating on full matrices
            not using symmetry adapted basis
 @scfsetup: diis switched on
 @scfsetup: number of steps to extrapolate from  10
 @scfsetup: tolerance in energy deviation    0.100000E-07
            tolerance in density deviation    0.100000E-08
 @scfsetup: maximum number of iterations: 200
 @scfsetup: restricted closed shell hf calc
 @scfsetup: starting scf from superposition of atomic densities
 @scfsetup: occupation set:
            from initial orbitals
 @scfsetup: Parameter-set for SCF acceleration: normal
 @scfsetup: diis runs from iteration:   2
 @scfsetup: diis runs to iteration: 200
 @scfsetup: diis runs in every iteration
 @scfsetup: diiswatch is disabled                   
 @scfsetup: diis dtol criteria to switch on:      0.0000E+00
           (or the iteration number below is reached)
 @scfsetup: static damping scheme
            iteration step criteria to turn damping off: 3
 @scfsetup: dynamic level shifting
            tolarance in HOMO-LUMO gap:  0.200
            tolarance in density deviation:     0.0000E+00
            iteration step criteria to turn level shifting off: 8
 Allocation of 46.0 Gbytes of memory...
 ======================================================================
 ITERATION STEP   1
 CPU time [min]:     0.014                   Wall time [min]:     0.008
 

 SCF control                  : initial
 Damping factor/level shift   : 0.000/0.200
 DIIS [start/end/frequency]   :   2 /200 /  1

 Constructing Fock-matrix...
 
 Pipek-Mezey localization...
 Step  Convergence
   1   0.873378417270
   2   0.001667180694
   3   0.000003715540
   4   0.000000030743
   5   0.000000000195
 CPU time [min]:     0.041                   Wall time [min]:     0.009
 
 Constructing local fitting domains...
 Maximum number of atoms in fitting domains:    5
 Average number of atoms in fitting domains:    4.2
 
 First step of Coulomb + first step of exchange...
 Exchange contribution is evaluated for MOs 1 to 5.
   3% done.
  14% done.
  25% done.
  43% done.
  55% done.
  69% done.
  84% done.
 100% done.
 Fitting and assembly step of exchange...
 CPU time [min]:     0.114                   Wall time [min]:     0.010
 
 Second step of Coulomb...
   3% done.
  14% done.
  25% done.
  43% done.
  55% done.
  69% done.
  84% done.
 100% done.
 CPU time [min]:     0.131                   Wall time [min]:     0.010
 
 Gradient norm:      2.3664E+00
 RMS of [F,P]:                                         0.03754481753113
 RMS of difference density:                            0.01365143539101
 Gap [au]:  0.65541312
 ALPHA OCC:   5
 BETA  OCC:   5
 
 ***HARTREE-FOCK ENERGY IN STEP   1 IS        -55.8598435818059116 [AU]
 ======================================================================
 ITERATION STEP   2
 CPU time [min]:     0.142                   Wall time [min]:     0.010
 

 SCF control                  : diis
 Damping factor/level shift   : 0.000/0.000
 DIIS [start/end/frequency]   :   2 /200 /  1

 Constructing Fock-matrix...
 
 Pipek-Mezey localization...
 Step  Convergence
   1   0.000432890306
   2   0.000003418048
   3   0.000000012641
   4   0.000000000193
 CPU time [min]:     0.165                   Wall time [min]:     0.011
 
 Constructing local fitting domains...
 Maximum number of atoms in fitting domains:    5
 Average number of atoms in fitting domains:    4.2
 
 First step of Coulomb + first step of exchange...
 Exchange contribution is evaluated for MOs 1 to 5.
   3% done.
  14% done.
  25% done.
  43% done.
  55% done.
  69% done.
  84% done.
 100% done.
 Fitting and assembly step of exchange...
 CPU time [min]:     0.228                   Wall time [min]:     0.012
 
 Second step of Coulomb...
   3% done.
  14% done.
  25% done.
  43% done.
  55% done.
  69% done.
  84% done.
 100% done.
 CPU time [min]:     0.243                   Wall time [min]:     0.012
 
 Gradient norm:      3.2181E-01
 DIIS is running in this iteration step.
 RMS of [F,P]:                                         0.00802192719185
 RMS of difference density:                            0.00630386042122
 Gap [au]:  0.47552344
 ALPHA OCC:   5
 BETA  OCC:   5
 
 ***HARTREE-FOCK ENERGY IN STEP   2 IS        -56.1231327253923027 [AU]
 
 Step comparison  Energy Drift [au]  DIIS error drift  Gradient drift
        1            2.6329E-01         2.9523E-02       2.0446E+00
        2            5.6123E+01         1.0000E-09       2.0446E+00
 ======================================================================
 ITERATION STEP   3
 CPU time [min]:     0.256                   Wall time [min]:     0.012
 

 SCF control                  : diis
 Damping factor/level shift   : 0.000/0.000
 DIIS [start/end/frequency]   :   2 /200 /  1

 Constructing Fock-matrix...
 
 Pipek-Mezey localization...
 Step  Convergence
   1   0.020161671673
   2   0.019645879238
   3   0.000001873647
   4   0.000000000145
 CPU time [min]:     0.280                   Wall time [min]:     0.013
 
 Constructing local fitting domains...
 Local fitting domains are unchanged.
 
 First step of Coulomb + first step of exchange...
 Exchange contribution is evaluated for MOs 1 to 5.
   3% done.
  14% done.
  25% done.
  43% done.
  55% done.
  69% done.
  84% done.
 100% done.
 Fitting and assembly step of exchange...
 CPU time [min]:     0.341                   Wall time [min]:     0.014
 
 Second step of Coulomb...
   3% done.
  14% done.
  25% done.
  43% done.
  55% done.
  69% done.
  84% done.
 100% done.
 CPU time [min]:     0.357                   Wall time [min]:     0.014
 
 Gradient norm:      1.2538E-01
 DIIS is running in this iteration step.
 RMS of [F,P]:                                         0.00381807619660
 RMS of difference density:                            0.00191916052591
 Gap [au]:  0.53620764
 ALPHA OCC:   5
 BETA  OCC:   5
 
 ***HARTREE-FOCK ENERGY IN STEP   3 IS        -56.1423888976529284 [AU]
 
 Step comparison  Energy Drift [au]  DIIS error drift  Gradient drift
        2            1.9256E-02         4.2039E-03       1.9642E-01
 ======================================================================
 ITERATION STEP   4
 CPU time [min]:     0.370                   Wall time [min]:     0.014
 

 SCF control                  : diis
 Damping factor/level shift   : 0.000/0.000
 DIIS [start/end/frequency]   :   2 /200 /  1

 Constructing Fock-matrix...
 
 Pipek-Mezey localization...
 Step  Convergence
   1   0.019949431066
   2   0.019688181783
   3   0.000001668386
   4   0.000000000159
 CPU time [min]:     0.393                   Wall time [min]:     0.014
 
 Constructing local fitting domains...
 Local fitting domains are unchanged.
 
 First step of Coulomb + first step of exchange...
 Exchange contribution is evaluated for MOs 1 to 5.
   3% done.
  14% done.
  25% done.
  43% done.
  55% done.
  69% done.
  84% done.
 100% done.
 Fitting and assembly step of exchange...
 CPU time [min]:     0.454                   Wall time [min]:     0.015
 
 Second step of Coulomb...
   3% done.
  14% done.
  25% done.
  43% done.
  55% done.
  69% done.
  84% done.
 100% done.
 CPU time [min]:     0.469                   Wall time [min]:     0.016
 
 Gradient norm:      2.4131E-02
 DIIS is running in this iteration step.
 RMS of [F,P]:                                         0.00047239914860
 RMS of difference density:                            0.00047825914481
 Gap [au]:  0.52812942
 ALPHA OCC:   5
 BETA  OCC:   5
 
 ***HARTREE-FOCK ENERGY IN STEP   4 IS        -56.1476367787398445 [AU]
 
 Step comparison  Energy Drift [au]  DIIS error drift  Gradient drift
        3            5.2479E-03         3.3457E-03       1.0125E-01
 ======================================================================
 ITERATION STEP   5
 CPU time [min]:     0.483                   Wall time [min]:     0.016
 

 SCF control                  : diis
 Damping factor/level shift   : 0.000/0.000
 DIIS [start/end/frequency]   :   2 /200 /  1

 Constructing Fock-matrix...
 
 Pipek-Mezey localization...
 Step  Convergence
   1   0.029945881618
   2   0.029590916462
   3   0.000002207725
   4   0.000000000179
 CPU time [min]:     0.506                   Wall time [min]:     0.016
 
 Constructing local fitting domains...
 Local fitting domains are unchanged.
 
 First step of Coulomb + first step of exchange...
 Exchange contribution is evaluated for MOs 1 to 5.
   3% done.
  14% done.
  25% done.
  43% done.
  55% done.
  69% done.
  84% done.
 100% done.
 Fitting and assembly step of exchange...
 CPU time [min]:     0.566                   Wall time [min]:     0.017
 
 Second step of Coulomb...
   3% done.
  14% done.
  25% done.
  43% done.
  55% done.
  69% done.
  84% done.
 100% done.
 CPU time [min]:     0.581                   Wall time [min]:     0.018
 
 Gradient norm:      1.8833E-03
 DIIS is running in this iteration step.
 RMS of [F,P]:                                         0.00007844726250
 RMS of difference density:                            0.00006651207434
 Gap [au]:  0.52836736
 ALPHA OCC:   5
 BETA  OCC:   5
 
 ***HARTREE-FOCK ENERGY IN STEP   5 IS        -56.1477972073031708 [AU]
 
 Step comparison  Energy Drift [au]  DIIS error drift  Gradient drift
        4            1.6043E-04         3.9395E-04       2.2247E-02
 ======================================================================
 ITERATION STEP   6
 CPU time [min]:     0.593                   Wall time [min]:     0.018
 

 SCF control                  : diis
 Damping factor/level shift   : 0.000/0.000
 DIIS [start/end/frequency]   :   2 /200 /  1

 Constructing Fock-matrix...
 
 Pipek-Mezey localization...
 Step  Convergence
   1   0.045338548943
   2   0.043757037771
   3   0.000006437619
   4   0.000000000496
 CPU time [min]:     0.617                   Wall time [min]:     0.018
 
 Constructing local fitting domains...
 Local fitting domains are unchanged.
 
 First step of Coulomb + first step of exchange...
 Exchange contribution is evaluated for MOs 1 to 5.
   3% done.
  14% done.
  25% done.
  43% done.
  55% done.
  69% done.
  84% done.
 100% done.
 Fitting and assembly step of exchange...
 CPU time [min]:     0.677                   Wall time [min]:     0.019
 
 Second step of Coulomb...
   3% done.
  14% done.
  25% done.
  43% done.
  55% done.
  69% done.
  84% done.
 100% done.
 CPU time [min]:     0.692                   Wall time [min]:     0.019
 
 Gradient norm:      3.1720E-04
 DIIS is running in this iteration step.
 RMS of [F,P]:                                         0.00000818037736
 RMS of difference density:                            0.00000621930451
 Gap [au]:  0.52840418
 ALPHA OCC:   5
 BETA  OCC:   5
 
 ***HARTREE-FOCK ENERGY IN STEP   6 IS        -56.1478005154287558 [AU]
 
 Step comparison  Energy Drift [au]  DIIS error drift  Gradient drift
        5            3.3081E-06         7.0267E-05       1.5661E-03
 ======================================================================
 ITERATION STEP   7
 CPU time [min]:     0.704                   Wall time [min]:     0.020
 

 SCF control                  : diis
 Damping factor/level shift   : 0.000/0.000
 DIIS [start/end/frequency]   :   2 /200 /  1

 Constructing Fock-matrix...
 
 Pipek-Mezey localization...
 Step  Convergence
   1   0.045486076931
   2   0.045994281460
   3   0.000054197144
   4   0.000000126581
   5   0.000000000272
   6   0.000000000001
 CPU time [min]:     0.727                   Wall time [min]:     0.020
 
 Constructing local fitting domains...
 Local fitting domains are unchanged.
 
 First step of Coulomb + first step of exchange...
 Exchange contribution is evaluated for MOs 1 to 5.
   3% done.
  14% done.
  25% done.
  43% done.
  55% done.
  69% done.
  84% done.
 100% done.
 Fitting and assembly step of exchange...
 CPU time [min]:     0.787                   Wall time [min]:     0.021
 
 Second step of Coulomb...
   3% done.
  14% done.
  25% done.
  43% done.
  55% done.
  69% done.
  84% done.
 100% done.
 CPU time [min]:     0.803                   Wall time [min]:     0.021
 
 Gradient norm:      7.6718E-05
 DIIS is running in this iteration step.
 RMS of [F,P]:                                         0.00000131947314
 RMS of difference density:                            0.00000143827925
 Gap [au]:  0.52839330
 ALPHA OCC:   5
 BETA  OCC:   5
 
 ***HARTREE-FOCK ENERGY IN STEP   7 IS        -56.1478005511696168 [AU]
 
 Step comparison  Energy Drift [au]  DIIS error drift  Gradient drift
        6            3.5741E-08         6.8609E-06       2.4048E-04
 ======================================================================
 ITERATION STEP   8
 CPU time [min]:     0.816                   Wall time [min]:     0.022
 

 SCF control                  : diis
 Damping factor/level shift   : 0.000/0.000
 DIIS [start/end/frequency]   :   2 /200 /  1

 Constructing Fock-matrix...
 
 Pipek-Mezey localization...
 Step  Convergence
   1   0.045518427009
   2   0.043802698004
   3   0.000003382274
   4   0.000000001459
   5   0.000000000002
   6   0.000000000000
 CPU time [min]:     0.839                   Wall time [min]:     0.022
 
 Constructing local fitting domains...
 Local fitting domains are unchanged.
 
 First step of Coulomb + first step of exchange...
 Exchange contribution is evaluated for MOs 1 to 5.
   3% done.
  14% done.
  25% done.
  43% done.
  55% done.
  69% done.
  84% done.
 100% done.
 Fitting and assembly step of exchange...
 CPU time [min]:     0.900                   Wall time [min]:     0.023
 
 Second step of Coulomb...
   3% done.
  14% done.
  25% done.
  43% done.
  55% done.
  69% done.
  84% done.
 100% done.
 CPU time [min]:     0.915                   Wall time [min]:     0.023
 
 Gradient norm:      1.0824E-05
 DIIS is running in this iteration step.
 RMS of [F,P]:                                         0.00000027390966
 RMS of difference density:                            0.00000048855052
 Gap [au]:  0.52838897
 ALPHA OCC:   5
 BETA  OCC:   5
 
 ***HARTREE-FOCK ENERGY IN STEP   8 IS        -56.1478005528120860 [AU]
 
 Step comparison  Energy Drift [au]  DIIS error drift  Gradient drift
        7            1.6425E-09         1.0456E-06       6.5894E-05
 ======================================================================
 ITERATION STEP   9
 CPU time [min]:     0.928                   Wall time [min]:     0.023
 

 SCF control                  : diis
 Damping factor/level shift   : 0.000/0.000
 DIIS [start/end/frequency]   :   2 /200 /  1

 Constructing Fock-matrix...
 
 Pipek-Mezey localization...
 Step  Convergence
   1   0.045368001056
   2   0.043814374382
   3   0.000009405675
   4   0.000000001043
   5   0.000000000003
   6   0.000000000000
 CPU time [min]:     0.951                   Wall time [min]:     0.024
 
 Constructing local fitting domains...
 Local fitting domains are unchanged.
 
 First step of Coulomb + first step of exchange...
 Exchange contribution is evaluated for MOs 1 to 5.
   3% done.
  14% done.
  25% done.
  43% done.
  55% done.
  69% done.
  84% done.
 100% done.
 Fitting and assembly step of exchange...
 CPU time [min]:     1.011                   Wall time [min]:     0.025
 
 Second step of Coulomb...
   3% done.
  14% done.
  25% done.
  43% done.
  55% done.
  69% done.
  84% done.
 100% done.
 CPU time [min]:     1.026                   Wall time [min]:     0.025
 
 Gradient norm:      2.6993E-06
 DIIS is running in this iteration step.
 RMS of [F,P]:                                         0.00000004791541
 RMS of difference density:                            0.00000014217348
 Gap [au]:  0.52838866
 ALPHA OCC:   5
 BETA  OCC:   5
 
 ***HARTREE-FOCK ENERGY IN STEP   9 IS        -56.1478005529160953 [AU]
 
 Step comparison  Energy Drift [au]  DIIS error drift  Gradient drift
        8            1.0401E-10         2.2599E-07       8.1250E-06
 ======================================================================
 ITERATION STEP  10
 CPU time [min]:     1.039                   Wall time [min]:     0.025
 

 SCF control                  : diis
 Damping factor/level shift   : 0.000/0.000
 DIIS [start/end/frequency]   :   2 /200 /  1

 Constructing Fock-matrix...
 
 Pipek-Mezey localization...
 Step  Convergence
   1   0.045409999500
   2   0.043890863274
   3   0.000006414234
   4   0.000000002285
   5   0.000000000004
   6   0.000000000000
 CPU time [min]:     1.062                   Wall time [min]:     0.026
 
 Constructing local fitting domains...
 Local fitting domains are unchanged.
 
 First step of Coulomb + first step of exchange...
 Exchange contribution is evaluated for MOs 1 to 5.
   3% done.
  14% done.
  25% done.
  43% done.
  55% done.
  69% done.
  84% done.
 100% done.
 Fitting and assembly step of exchange...
 CPU time [min]:     1.123                   Wall time [min]:     0.027
 
 Second step of Coulomb...
   3% done.
  14% done.
  25% done.
  43% done.
  55% done.
  69% done.
  84% done.
 100% done.
 CPU time [min]:     1.138                   Wall time [min]:     0.027
 
 Gradient norm:      5.5006E-07
 DIIS is running in this iteration step.
 RMS of [F,P]:                                         0.00000001094161
 RMS of difference density:                            0.00000003590621
 Gap [au]:  0.52838870
 ALPHA OCC:   5
 BETA  OCC:   5
 
 ***HARTREE-FOCK ENERGY IN STEP  10 IS        -56.1478005529209057 [AU]
 
 Step comparison  Energy Drift [au]  DIIS error drift  Gradient drift
        9            4.8104E-12         3.6974E-08       2.1492E-06
 ======================================================================
 ITERATION STEP  11
 CPU time [min]:     1.151                   Wall time [min]:     0.027
 

 SCF control                  : diis
 Damping factor/level shift   : 0.000/0.000
 DIIS [start/end/frequency]   :   2 /200 /  1

 Constructing Fock-matrix...
 
 Pipek-Mezey localization...
 Step  Convergence
   1   0.045519339708
   2   0.043741013346
   3   0.000056049362
   4   0.000000305106
   5   0.000000000622
   6   0.000000000001
   7   0.000000000000
 CPU time [min]:     1.174                   Wall time [min]:     0.028
 
 Constructing local fitting domains...
 Local fitting domains are unchanged.
 
 First step of Coulomb + first step of exchange...
 Exchange contribution is evaluated for MOs 1 to 5.
   3% done.
  14% done.
  25% done.
  43% done.
  55% done.
  69% done.
  84% done.
 100% done.
 Fitting and assembly step of exchange...
 CPU time [min]:     1.235                   Wall time [min]:     0.029
 
 Second step of Coulomb...
   3% done.
  14% done.
  25% done.
  43% done.
  55% done.
  69% done.
  84% done.
 100% done.
 CPU time [min]:     1.250                   Wall time [min]:     0.029
 
 Gradient norm:      4.3713E-08
 DIIS is running in this iteration step.
 RMS of [F,P]:                                         0.00000000098329
 RMS of difference density:                            0.00000000193031
 Gap [au]:  0.52838872
 ALPHA OCC:   5
 BETA  OCC:   5
 
 ***HARTREE-FOCK ENERGY IN STEP  11 IS        -56.1478005529210904 [AU]
 
 Step comparison  Energy Drift [au]  DIIS error drift  Gradient drift
       10            1.8474E-13         9.9583E-09       5.0635E-07
 ======================================================================
 ITERATION STEP  12
 CPU time [min]:     1.264                   Wall time [min]:     0.029
 

 SCF control                  : diis
 Damping factor/level shift   : 0.000/0.000
 DIIS [start/end/frequency]   :   2 /200 /  1

 Constructing Fock-matrix...
 
 Pipek-Mezey localization...
 Step  Convergence
   1   0.045611678120
   2   0.043868132975
   3   0.000011863159
   4   0.000000002942
   5   0.000000000011
   6   0.000000000000
 CPU time [min]:     1.287                   Wall time [min]:     0.029
 
 Constructing local fitting domains...
 Local fitting domains are unchanged.
 
 First step of Coulomb + first step of exchange...
 Exchange contribution is evaluated for MOs 1 to 5.
   3% done.
  14% done.
  25% done.
  43% done.
  55% done.
  69% done.
  84% done.
 100% done.
 Fitting and assembly step of exchange...
 CPU time [min]:     1.347                   Wall time [min]:     0.030
 
 Second step of Coulomb...
   3% done.
  14% done.
  25% done.
  43% done.
  55% done.
  69% done.
  84% done.
 100% done.
 CPU time [min]:     1.362                   Wall time [min]:     0.031
 
 Gradient norm:      3.3316E-09
 DIIS is running in this iteration step.
 RMS of [F,P]:                                         0.00000000008708
 RMS of difference density:                            0.00000000011909
 Gap [au]:  0.52838872
 ALPHA OCC:   5
 BETA  OCC:   5
 
 ***HARTREE-FOCK ENERGY IN STEP  12 IS        -56.1478005529211615 [AU]
 
 Step comparison  Energy Drift [au]  DIIS error drift  Gradient drift
       11            7.1054E-14         8.9620E-10       4.0382E-08
 
 The SCF iteration has converged.
 An extra iteration will be performed to calculate accurate SCF energy.
 
 ======================================================================
 ITERATION STEP  13
 CPU time [min]:     1.377                   Wall time [min]:     0.031
 

 SCF control                  : diis
 Damping factor/level shift   : 0.000/0.000
 DIIS [start/end/frequency]   :   2 /200 /  1

 Constructing Fock-matrix...
 
 Pipek-Mezey localization...
 Step  Convergence
   1   0.040077733275
   2   0.039551365820
   3   0.000051610288
   4   0.000000310529
   5   0.000000000628
   6   0.000000000001
   7   0.000000000000
 CPU time [min]:     1.400                   Wall time [min]:     0.031
 
 Constructing local fitting domains...
 Maximum number of atoms in fitting domains:    8
 Average number of atoms in fitting domains:    8.0
 
 First step of Coulomb + first step of exchange...
 Exchange contribution is evaluated for MOs 1 to 5.
   3% done.
  14% done.
  25% done.
  43% done.
  55% done.
  69% done.
  84% done.
 100% done.
 Fitting and assembly step of exchange...
 CPU time [min]:     1.472                   Wall time [min]:     0.033
 
 Second step of Coulomb...
   3% done.
  14% done.
  25% done.
  43% done.
  55% done.
  69% done.
  84% done.
 100% done.
 CPU time [min]:     1.487                   Wall time [min]:     0.033
 
 Gradient norm:      1.0356E-06
 RMS of [F,P]:                                         0.00000004525314
 RMS of difference density:                            0.00000005833440
 Gap [au]:  0.52838040
 ALPHA OCC:   5
 BETA  OCC:   5
 
 ***HARTREE-FOCK ENERGY IN STEP  13 IS        -56.1478007026614492 [AU]
 
 Step comparison  Energy Drift [au]  DIIS error drift  Gradient drift
       12            1.4974E-07        -4.5166E-08      -1.0323E-06
 Warning! The DIIS error goes uphill (with respect to previous step).
 Warning! The DIIS error goes uphill (with respect to step  12 ).
 Warning! The gradient goes uphill (with respect to previous step).
 Warning! The gradient goes uphill (with respect to step  12 ).
 ======================================================================
 
 SUCCESS...
 THE SCF ITERATION HAS CONVERGED!
 
                   A   
 FINAL ALPHA OCC:   5
 FINAL BETA  OCC:   5
 
 ***FINAL HARTREE-FOCK ENERGY:        -56.1478007026614492 [AU]
 
 Orbital energies [au]:
      Irrep         Alpha          Beta
    1   A        -15.539304     -15.539304
    2   A         -1.111315      -1.111315
    3   A         -0.615220      -0.615220
    4   A         -0.615187      -0.615187
    5   A         -0.418650      -0.418650
 
    6   A          0.109730       0.109730
    7   A          0.187183       0.187183
    8   A          0.227375       0.227375
    9   A          0.245301       0.245301
   10   A          0.277715       0.277715
   11   A          0.326036       0.326036
   12   A          0.462623       0.462623
   13   A          0.589396       0.589396
   14   A          0.712480       0.712480
   15   A          0.719216       0.719216
   16   A          0.735664       0.735664
   17   A          0.781862       0.781862
   18   A          0.893437       0.893437
   19   A          0.990335       0.990335
   20   A          1.094732       1.094732
   21   A          1.111375       1.111375
   22   A          1.159355       1.159355
   23   A          1.459190       1.459190
   24   A          1.460225       1.460225
   25   A          1.573340       1.573340
   26   A          1.575573       1.575573
   27   A          1.612912       1.612912
   28   A          1.764255       1.764255
   29   A          1.871565       1.871565
   30   A          1.961504       1.961504
   31   A          1.963588       1.963588
   32   A          1.969346       1.969346
   33   A          2.074423       2.074423
   34   A          2.074740       2.074740
   35   A          2.270365       2.270365
   36   A          2.414552       2.414552
   37   A          2.424738       2.424738
   38   A          2.446943       2.446943
   39   A          2.465176       2.465176
   40   A          2.474198       2.474198
   41   A          2.485709       2.485709
   42   A          2.496216       2.496216
   43   A          2.749428       2.749428
   44   A          3.031594       3.031594
   45   A          3.155699       3.155699
   46   A          3.157911       3.157911
   47   A          3.264387       3.264387
   48   A          3.693539       3.693539
   49   A          3.701190       3.701190
   50   A          4.011679       4.011679
   51   A          4.031514       4.031514
   52   A          4.046770       4.046770
   53   A          4.151910       4.151910
   54   A          4.152409       4.152409
   55   A          4.892126       4.892126
   56   A          6.044276       6.044276
   57   A          6.045344       6.045344
   58   A         26.598869      26.598869
 
 RETURNING FROM SCF ALGORITHM
 ======================================================================

 ************************ 2026-02-26 16:16:19 *************************
 Executing integ...

 Allocation of 46.0 Gbytes of memory...
 
 
 Number of atoms:                  8
 Charge:                           0
 Number of electrons:             10
 Number of core electrons:         2
 Spin multiplicity:                1
 
                 Cartesian coordinates [bohr]      Atomic mass [AMU]  Z
   1  N     1.97420664    1.97415541    1.97424640     0.000000       0
   2  H     3.51863349    2.63865391    1.00653002     0.000000       0
   3  H     2.63877653    1.00647336    3.51882825     0.000000       0
   4  H     1.00639751    3.51850532    2.63869260     0.000000       0
   5  N     6.82182577    2.87346447    7.72099687    14.003074       7
   6  H     8.36625160    2.20896759    8.68871146     1.007825       1
   7  H     7.48639849    3.84114800    6.17641118     1.007825       1
   8  H     5.85401804    1.32911599    7.05654762     1.007825       1
 
 This molecule is an asymmetric top.
 
 Point group: C1  
 Computational point group: C1  
 
 Cartesian coordinates in standard orientation [bohr]
   1  N    -6.87805006   -0.06596900   -0.06867574
   2  H    -6.52945343    1.49640516   -1.16446536
   3  H    -5.37810074   -1.27440113   -0.30027584
   4  H    -6.86359711    0.51702427    1.78147827
   5  N     0.69092828   -0.00030177    0.13023020
   6  H     2.36301731   -0.36840472   -0.78185381
   7  H     0.06048385    1.72203084   -0.50216482
   8  H    -0.58978196   -1.33167638   -0.46169865
 
 Nuclear repulsion energy [au]:         11.785794585729
 
 
 Basis set information:
 
 Maximum angular momentum: g
 Maximum number of contracted Gaussians:   11
 Maximum number of primitive Gaussians:    14
 Spherical harmonic GTOs are used.
 
 
 Conventional basis set:
 
   1  N  aug-cc-pvtz [ 11s 6p 3d 2f | 5s 4p 3d 2f ]
   2  H  aug-cc-pvtz [ 6s 3p 2d | 4s 3p 2d ]
   3  H  aug-cc-pvtz [ 6s 3p 2d | 4s 3p 2d ]
   4  H  aug-cc-pvtz [ 6s 3p 2d | 4s 3p 2d ]
   5  N  aug-cc-pvtz [ 11s 6p 3d 2f | 5s 4p 3d 2f ]
   6  H  aug-cc-pvtz [ 6s 3p 2d | 4s 3p 2d ]
   7  H  aug-cc-pvtz [ 6s 3p 2d | 4s 3p 2d ]
   8  H  aug-cc-pvtz [ 6s 3p 2d | 4s 3p 2d ]
 
 Basis functions:
            1             2             3             4             5             6             7             8             9            10
    0    1N1s          1N2s          1N3s          1N4s          1N5s          1N1pz         1N1py         1N1px         1N2pz         1N2py     
    1    1N2px         1N3pz         1N3py         1N3px         1N4pz         1N4py         1N4px         1N1d-2        1N1d-1        1N1d0     
    2    1N1d+1        1N1d+2        1N2d-2        1N2d-1        1N2d0         1N2d+1        1N2d+2        1N3d-2        1N3d-1        1N3d0     
    3    1N3d+1        1N3d+2        1N1f-3        1N1f-2        1N1f-1        1N1f0         1N1f+1        1N1f+2        1N1f+3        1N2f-3    
    4    1N2f-2        1N2f-1        1N2f0         1N2f+1        1N2f+2        1N2f+3        2H1s          2H2s          2H3s          2H4s      
    5    2H1pz         2H1py         2H1px         2H2pz         2H2py         2H2px         2H3pz         2H3py         2H3px         2H1d-2    
    6    2H1d-1        2H1d0         2H1d+1        2H1d+2        2H2d-2        2H2d-1        2H2d0         2H2d+1        2H2d+2        3H1s      
    7    3H2s          3H3s          3H4s          3H1pz         3H1py         3H1px         3H2pz         3H2py         3H2px         3H3pz     
    8    3H3py         3H3px         3H1d-2        3H1d-1        3H1d0         3H1d+1        3H1d+2        3H2d-2        3H2d-1        3H2d0     
    9    3H2d+1        3H2d+2        4H1s          4H2s          4H3s          4H4s          4H1pz         4H1py         4H1px         4H2pz     
   10    4H2py         4H2px         4H3pz         4H3py         4H3px         4H1d-2        4H1d-1        4H1d0         4H1d+1        4H1d+2    
   11    4H2d-2        4H2d-1        4H2d0         4H2d+1        4H2d+2        5N1s          5N2s          5N3s          5N4s          5N5s      
   12    5N1pz         5N1py         5N1px         5N2pz         5N2py         5N2px         5N3pz         5N3py         5N3px         5N4pz     
   13    5N4py         5N4px         5N1d-2        5N1d-1        5N1d0         5N1d+1        5N1d+2        5N2d-2        5N2d-1        5N2d0     
   14    5N2d+1        5N2d+2        5N3d-2        5N3d-1        5N3d0         5N3d+1        5N3d+2        5N1f-3        5N1f-2        5N1f-1    
   15    5N1f0         5N1f+1        5N1f+2        5N1f+3        5N2f-3        5N2f-2        5N2f-1        5N2f0         5N2f+1        5N2f+2    
   16    5N2f+3        6H1s          6H2s          6H3s          6H4s          6H1pz         6H1py         6H1px         6H2pz         6H2py     
   17    6H2px         6H3pz         6H3py         6H3px         6H1d-2        6H1d-1        6H1d0         6H1d+1        6H1d+2        6H2d-2    
   18    6H2d-1        6H2d0         6H2d+1        6H2d+2        7H1s          7H2s          7H3s          7H4s          7H1pz         7H1py     
   19    7H1px         7H2pz         7H2py         7H2px         7H3pz         7H3py         7H3px         7H1d-2        7H1d-1        7H1d0     
   20    7H1d+1        7H1d+2        7H2d-2        7H2d-1        7H2d0         7H2d+1        7H2d+2        8H1s          8H2s          8H3s      
   21    8H4s          8H1pz         8H1py         8H1px         8H2pz         8H2py         8H2px         8H3pz         8H3py         8H3px     
   22    8H1d-2        8H1d-1        8H1d0         8H1d+1        8H1d+2        8H2d-2        8H2d-1        8H2d0         8H2d+1        8H2d+2    
 
 Maximum number of basis functions per shell:   15
 Total number of basis functions:    230
 
 
 Fitting basis set for the SCF calculation:
 
   1  N  aug-cc-pvtz-ri-jk [ 11s 8p 6d 3f 2g | 11s 8p 6d 3f 2g ]
   2  H  aug-cc-pvtz-ri-jk [ 5s 4p 3d 2f | 5s 4p 3d 2f ]
   3  H  aug-cc-pvtz-ri-jk [ 5s 4p 3d 2f | 5s 4p 3d 2f ]
   4  H  aug-cc-pvtz-ri-jk [ 5s 4p 3d 2f | 5s 4p 3d 2f ]
   5  N  aug-cc-pvtz-ri-jk [ 11s 8p 6d 3f 2g | 11s 8p 6d 3f 2g ]
   6  H  aug-cc-pvtz-ri-jk [ 5s 4p 3d 2f | 5s 4p 3d 2f ]
   7  H  aug-cc-pvtz-ri-jk [ 5s 4p 3d 2f | 5s 4p 3d 2f ]
   8  H  aug-cc-pvtz-ri-jk [ 5s 4p 3d 2f | 5s 4p 3d 2f ]
 
 Basis functions:
            1             2             3             4             5             6             7             8             9            10
    0    1N1s          1N2s          1N3s          1N4s          1N5s          1N6s          1N7s          1N8s          1N9s          1N10s     
    1    1N11s         1N1pz         1N1py         1N1px         1N2pz         1N2py         1N2px         1N3pz         1N3py         1N3px     
    2    1N4pz         1N4py         1N4px         1N5pz         1N5py         1N5px         1N6pz         1N6py         1N6px         1N7pz     
    3    1N7py         1N7px         1N8pz         1N8py         1N8px         1N1d-2        1N1d-1        1N1d0         1N1d+1        1N1d+2    
    4    1N2d-2        1N2d-1        1N2d0         1N2d+1        1N2d+2        1N3d-2        1N3d-1        1N3d0         1N3d+1        1N3d+2    
    5    1N4d-2        1N4d-1        1N4d0         1N4d+1        1N4d+2        1N5d-2        1N5d-1        1N5d0         1N5d+1        1N5d+2    
    6    1N6d-2        1N6d-1        1N6d0         1N6d+1        1N6d+2        1N1f-3        1N1f-2        1N1f-1        1N1f0         1N1f+1    
    7    1N1f+2        1N1f+3        1N2f-3        1N2f-2        1N2f-1        1N2f0         1N2f+1        1N2f+2        1N2f+3        1N3f-3    
    8    1N3f-2        1N3f-1        1N3f0         1N3f+1        1N3f+2        1N3f+3        1N1g-4        1N1g-3        1N1g-2        1N1g-1    
    9    1N1g0         1N1g+1        1N1g+2        1N1g+3        1N1g+4        1N2g-4        1N2g-3        1N2g-2        1N2g-1        1N2g0     
   10    1N2g+1        1N2g+2        1N2g+3        1N2g+4        2H1s          2H2s          2H3s          2H4s          2H5s          2H1pz     
   11    2H1py         2H1px         2H2pz         2H2py         2H2px         2H3pz         2H3py         2H3px         2H4pz         2H4py     
   12    2H4px         2H1d-2        2H1d-1        2H1d0         2H1d+1        2H1d+2        2H2d-2        2H2d-1        2H2d0         2H2d+1    
   13    2H2d+2        2H3d-2        2H3d-1        2H3d0         2H3d+1        2H3d+2        2H1f-3        2H1f-2        2H1f-1        2H1f0     
   14    2H1f+1        2H1f+2        2H1f+3        2H2f-3        2H2f-2        2H2f-1        2H2f0         2H2f+1        2H2f+2        2H2f+3    
   15    3H1s          3H2s          3H3s          3H4s          3H5s          3H1pz         3H1py         3H1px         3H2pz         3H2py     
   16    3H2px         3H3pz         3H3py         3H3px         3H4pz         3H4py         3H4px         3H1d-2        3H1d-1        3H1d0     
   17    3H1d+1        3H1d+2        3H2d-2        3H2d-1        3H2d0         3H2d+1        3H2d+2        3H3d-2        3H3d-1        3H3d0     
   18    3H3d+1        3H3d+2        3H1f-3        3H1f-2        3H1f-1        3H1f0         3H1f+1        3H1f+2        3H1f+3        3H2f-3    
   19    3H2f-2        3H2f-1        3H2f0         3H2f+1        3H2f+2        3H2f+3        4H1s          4H2s          4H3s          4H4s      
   20    4H5s          4H1pz         4H1py         4H1px         4H2pz         4H2py         4H2px         4H3pz         4H3py         4H3px     
   21    4H4pz         4H4py         4H4px         4H1d-2        4H1d-1        4H1d0         4H1d+1        4H1d+2        4H2d-2        4H2d-1    
   22    4H2d0         4H2d+1        4H2d+2        4H3d-2        4H3d-1        4H3d0         4H3d+1        4H3d+2        4H1f-3        4H1f-2    
   23    4H1f-1        4H1f0         4H1f+1        4H1f+2        4H1f+3        4H2f-3        4H2f-2        4H2f-1        4H2f0         4H2f+1    
   24    4H2f+2        4H2f+3        5N1s          5N2s          5N3s          5N4s          5N5s          5N6s          5N7s          5N8s      
   25    5N9s          5N10s         5N11s         5N1pz         5N1py         5N1px         5N2pz         5N2py         5N2px         5N3pz     
   26    5N3py         5N3px         5N4pz         5N4py         5N4px         5N5pz         5N5py         5N5px         5N6pz         5N6py     
   27    5N6px         5N7pz         5N7py         5N7px         5N8pz         5N8py         5N8px         5N1d-2        5N1d-1        5N1d0     
   28    5N1d+1        5N1d+2        5N2d-2        5N2d-1        5N2d0         5N2d+1        5N2d+2        5N3d-2        5N3d-1        5N3d0     
   29    5N3d+1        5N3d+2        5N4d-2        5N4d-1        5N4d0         5N4d+1        5N4d+2        5N5d-2        5N5d-1        5N5d0     
   30    5N5d+1        5N5d+2        5N6d-2        5N6d-1        5N6d0         5N6d+1        5N6d+2        5N1f-3        5N1f-2        5N1f-1    
   31    5N1f0         5N1f+1        5N1f+2        5N1f+3        5N2f-3        5N2f-2        5N2f-1        5N2f0         5N2f+1        5N2f+2    
   32    5N2f+3        5N3f-3        5N3f-2        5N3f-1        5N3f0         5N3f+1        5N3f+2        5N3f+3        5N1g-4        5N1g-3    
   33    5N1g-2        5N1g-1        5N1g0         5N1g+1        5N1g+2        5N1g+3        5N1g+4        5N2g-4        5N2g-3        5N2g-2    
   34    5N2g-1        5N2g0         5N2g+1        5N2g+2        5N2g+3        5N2g+4        6H1s          6H2s          6H3s          6H4s      
   35    6H5s          6H1pz         6H1py         6H1px         6H2pz         6H2py         6H2px         6H3pz         6H3py         6H3px     
   36    6H4pz         6H4py         6H4px         6H1d-2        6H1d-1        6H1d0         6H1d+1        6H1d+2        6H2d-2        6H2d-1    
   37    6H2d0         6H2d+1        6H2d+2        6H3d-2        6H3d-1        6H3d0         6H3d+1        6H3d+2        6H1f-3        6H1f-2    
   38    6H1f-1        6H1f0         6H1f+1        6H1f+2        6H1f+3        6H2f-3        6H2f-2        6H2f-1        6H2f0         6H2f+1    
   39    6H2f+2        6H2f+3        7H1s          7H2s          7H3s          7H4s          7H5s          7H1pz         7H1py         7H1px     
   40    7H2pz         7H2py         7H2px         7H3pz         7H3py         7H3px         7H4pz         7H4py         7H4px         7H1d-2    
   41    7H1d-1        7H1d0         7H1d+1        7H1d+2        7H2d-2        7H2d-1        7H2d0         7H2d+1        7H2d+2        7H3d-2    
   42    7H3d-1        7H3d0         7H3d+1        7H3d+2        7H1f-3        7H1f-2        7H1f-1        7H1f0         7H1f+1        7H1f+2    
   43    7H1f+3        7H2f-3        7H2f-2        7H2f-1        7H2f0         7H2f+1        7H2f+2        7H2f+3        8H1s          8H2s      
   44    8H3s          8H4s          8H5s          8H1pz         8H1py         8H1px         8H2pz         8H2py         8H2px         8H3pz     
   45    8H3py         8H3px         8H4pz         8H4py         8H4px         8H1d-2        8H1d-1        8H1d0         8H1d+1        8H1d+2    
   46    8H2d-2        8H2d-1        8H2d0         8H2d+1        8H2d+2        8H3d-2        8H3d-1        8H3d0         8H3d+1        8H3d+2    
   47    8H1f-3        8H1f-2        8H1f-1        8H1f0         8H1f+1        8H1f+2        8H1f+3        8H2f-3        8H2f-2        8H2f-1    
   48    8H2f0         8H2f+1        8H2f+2        8H2f+3    
 
 Maximum number of basis functions per shell:   30
 Total number of basis functions:    484
 
 
 Fitting basis set for the correlation calculation:
 
   1  N  aug-cc-pvtz-ri [ 9s 7p 6d 4f 2g | 9s 7p 6d 4f 2g ]
   2  H  aug-cc-pvtz-ri [ 5s 4p 3d 2f | 5s 4p 3d 2f ]
   3  H  aug-cc-pvtz-ri [ 5s 4p 3d 2f | 5s 4p 3d 2f ]
   4  H  aug-cc-pvtz-ri [ 5s 4p 3d 2f | 5s 4p 3d 2f ]
   5  N  aug-cc-pvtz-ri [ 9s 7p 6d 4f 2g | 9s 7p 6d 4f 2g ]
   6  H  aug-cc-pvtz-ri [ 5s 4p 3d 2f | 5s 4p 3d 2f ]
   7  H  aug-cc-pvtz-ri [ 5s 4p 3d 2f | 5s 4p 3d 2f ]
   8  H  aug-cc-pvtz-ri [ 5s 4p 3d 2f | 5s 4p 3d 2f ]
 
 Basis functions:
            1             2             3             4             5             6             7             8             9            10
    0    1N1s          1N2s          1N3s          1N4s          1N5s          1N6s          1N7s          1N8s          1N9s          1N1pz     
    1    1N1py         1N1px         1N2pz         1N2py         1N2px         1N3pz         1N3py         1N3px         1N4pz         1N4py     
    2    1N4px         1N5pz         1N5py         1N5px         1N6pz         1N6py         1N6px         1N7pz         1N7py         1N7px     
    3    1N1d-2        1N1d-1        1N1d0         1N1d+1        1N1d+2        1N2d-2        1N2d-1        1N2d0         1N2d+1        1N2d+2    
    4    1N3d-2        1N3d-1        1N3d0         1N3d+1        1N3d+2        1N4d-2        1N4d-1        1N4d0         1N4d+1        1N4d+2    
    5    1N5d-2        1N5d-1        1N5d0         1N5d+1        1N5d+2        1N6d-2        1N6d-1        1N6d0         1N6d+1        1N6d+2    
    6    1N1f-3        1N1f-2        1N1f-1        1N1f0         1N1f+1        1N1f+2        1N1f+3        1N2f-3        1N2f-2        1N2f-1    
    7    1N2f0         1N2f+1        1N2f+2        1N2f+3        1N3f-3        1N3f-2        1N3f-1        1N3f0         1N3f+1        1N3f+2    
    8    1N3f+3        1N4f-3        1N4f-2        1N4f-1        1N4f0         1N4f+1        1N4f+2        1N4f+3        1N1g-4        1N1g-3    
    9    1N1g-2        1N1g-1        1N1g0         1N1g+1        1N1g+2        1N1g+3        1N1g+4        1N2g-4        1N2g-3        1N2g-2    
   10    1N2g-1        1N2g0         1N2g+1        1N2g+2        1N2g+3        1N2g+4        2H1s          2H2s          2H3s          2H4s      
   11    2H5s          2H1pz         2H1py         2H1px         2H2pz         2H2py         2H2px         2H3pz         2H3py         2H3px     
   12    2H4pz         2H4py         2H4px         2H1d-2        2H1d-1        2H1d0         2H1d+1        2H1d+2        2H2d-2        2H2d-1    
   13    2H2d0         2H2d+1        2H2d+2        2H3d-2        2H3d-1        2H3d0         2H3d+1        2H3d+2        2H1f-3        2H1f-2    
   14    2H1f-1        2H1f0         2H1f+1        2H1f+2        2H1f+3        2H2f-3        2H2f-2        2H2f-1        2H2f0         2H2f+1    
   15    2H2f+2        2H2f+3        3H1s          3H2s          3H3s          3H4s          3H5s          3H1pz         3H1py         3H1px     
   16    3H2pz         3H2py         3H2px         3H3pz         3H3py         3H3px         3H4pz         3H4py         3H4px         3H1d-2    
   17    3H1d-1        3H1d0         3H1d+1        3H1d+2        3H2d-2        3H2d-1        3H2d0         3H2d+1        3H2d+2        3H3d-2    
   18    3H3d-1        3H3d0         3H3d+1        3H3d+2        3H1f-3        3H1f-2        3H1f-1        3H1f0         3H1f+1        3H1f+2    
   19    3H1f+3        3H2f-3        3H2f-2        3H2f-1        3H2f0         3H2f+1        3H2f+2        3H2f+3        4H1s          4H2s      
   20    4H3s          4H4s          4H5s          4H1pz         4H1py         4H1px         4H2pz         4H2py         4H2px         4H3pz     
   21    4H3py         4H3px         4H4pz         4H4py         4H4px         4H1d-2        4H1d-1        4H1d0         4H1d+1        4H1d+2    
   22    4H2d-2        4H2d-1        4H2d0         4H2d+1        4H2d+2        4H3d-2        4H3d-1        4H3d0         4H3d+1        4H3d+2    
   23    4H1f-3        4H1f-2        4H1f-1        4H1f0         4H1f+1        4H1f+2        4H1f+3        4H2f-3        4H2f-2        4H2f-1    
   24    4H2f0         4H2f+1        4H2f+2        4H2f+3        5N1s          5N2s          5N3s          5N4s          5N5s          5N6s      
   25    5N7s          5N8s          5N9s          5N1pz         5N1py         5N1px         5N2pz         5N2py         5N2px         5N3pz     
   26    5N3py         5N3px         5N4pz         5N4py         5N4px         5N5pz         5N5py         5N5px         5N6pz         5N6py     
   27    5N6px         5N7pz         5N7py         5N7px         5N1d-2        5N1d-1        5N1d0         5N1d+1        5N1d+2        5N2d-2    
   28    5N2d-1        5N2d0         5N2d+1        5N2d+2        5N3d-2        5N3d-1        5N3d0         5N3d+1        5N3d+2        5N4d-2    
   29    5N4d-1        5N4d0         5N4d+1        5N4d+2        5N5d-2        5N5d-1        5N5d0         5N5d+1        5N5d+2        5N6d-2    
   30    5N6d-1        5N6d0         5N6d+1        5N6d+2        5N1f-3        5N1f-2        5N1f-1        5N1f0         5N1f+1        5N1f+2    
   31    5N1f+3        5N2f-3        5N2f-2        5N2f-1        5N2f0         5N2f+1        5N2f+2        5N2f+3        5N3f-3        5N3f-2    
   32    5N3f-1        5N3f0         5N3f+1        5N3f+2        5N3f+3        5N4f-3        5N4f-2        5N4f-1        5N4f0         5N4f+1    
   33    5N4f+2        5N4f+3        5N1g-4        5N1g-3        5N1g-2        5N1g-1        5N1g0         5N1g+1        5N1g+2        5N1g+3    
   34    5N1g+4        5N2g-4        5N2g-3        5N2g-2        5N2g-1        5N2g0         5N2g+1        5N2g+2        5N2g+3        5N2g+4    
   35    6H1s          6H2s          6H3s          6H4s          6H5s          6H1pz         6H1py         6H1px         6H2pz         6H2py     
   36    6H2px         6H3pz         6H3py         6H3px         6H4pz         6H4py         6H4px         6H1d-2        6H1d-1        6H1d0     
   37    6H1d+1        6H1d+2        6H2d-2        6H2d-1        6H2d0         6H2d+1        6H2d+2        6H3d-2        6H3d-1        6H3d0     
   38    6H3d+1        6H3d+2        6H1f-3        6H1f-2        6H1f-1        6H1f0         6H1f+1        6H1f+2        6H1f+3        6H2f-3    
   39    6H2f-2        6H2f-1        6H2f0         6H2f+1        6H2f+2        6H2f+3        7H1s          7H2s          7H3s          7H4s      
   40    7H5s          7H1pz         7H1py         7H1px         7H2pz         7H2py         7H2px         7H3pz         7H3py         7H3px     
   41    7H4pz         7H4py         7H4px         7H1d-2        7H1d-1        7H1d0         7H1d+1        7H1d+2        7H2d-2        7H2d-1    
   42    7H2d0         7H2d+1        7H2d+2        7H3d-2        7H3d-1        7H3d0         7H3d+1        7H3d+2        7H1f-3        7H1f-2    
   43    7H1f-1        7H1f0         7H1f+1        7H1f+2        7H1f+3        7H2f-3        7H2f-2        7H2f-1        7H2f0         7H2f+1    
   44    7H2f+2        7H2f+3        8H1s          8H2s          8H3s          8H4s          8H5s          8H1pz         8H1py         8H1px     
   45    8H2pz         8H2py         8H2px         8H3pz         8H3py         8H3px         8H4pz         8H4py         8H4px         8H1d-2    
   46    8H1d-1        8H1d0         8H1d+1        8H1d+2        8H2d-2        8H2d-1        8H2d0         8H2d+1        8H2d+2        8H3d-2    
   47    8H3d-1        8H3d0         8H3d+1        8H3d+2        8H1f-3        8H1f-2        8H1f-1        8H1f0         8H1f+1        8H1f+2    
   48    8H1f+3        8H2f-3        8H2f-2        8H2f-1        8H2f0         8H2f+1        8H2f+2        8H2f+3    
 
 Maximum number of basis functions per shell:   30
 Total number of basis functions:    488
 
 
 Old basis set for SCF restart
 
   1  N  def2-svp [ 7s 4p 1d | 3s 2p 1d ]
   2  H  def2-svp [ 4s 1p | 2s 1p ]
   3  H  def2-svp [ 4s 1p | 2s 1p ]
   4  H  def2-svp [ 4s 1p | 2s 1p ]
   5  N  def2-svp [ 7s 4p 1d | 3s 2p 1d ]
   6  H  def2-svp [ 4s 1p | 2s 1p ]
   7  H  def2-svp [ 4s 1p | 2s 1p ]
   8  H  def2-svp [ 4s 1p | 2s 1p ]
 
 Basis functions:
            1             2             3             4             5             6             7             8             9            10
    0    1N1s          1N2s          1N3s          1N1pz         1N1py         1N1px         1N2pz         1N2py         1N2px         1N1d-2    
    1    1N1d-1        1N1d0         1N1d+1        1N1d+2        2H1s          2H2s          2H1pz         2H1py         2H1px         3H1s      
    2    3H2s          3H1pz         3H1py         3H1px         4H1s          4H2s          4H1pz         4H1py         4H1px         5N1s      
    3    5N2s          5N3s          5N1pz         5N1py         5N1px         5N2pz         5N2py         5N2px         5N1d-2        5N1d-1    
    4    5N1d0         5N1d+1        5N1d+2        6H1s          6H2s          6H1pz         6H1py         6H1px         7H1s          7H2s      
    5    7H1pz         7H1py         7H1px         8H1s          8H2s          8H1pz         8H1py         8H1px     
 
 Maximum number of basis functions per shell:   30
 Total number of basis functions:     58
 
 
 Character table for point group C1:
 
          E  
    A     1
 
 Number of basis functions per irrep:
    A     230
 
 
 Calculation of overlap integrals...
 CPU time [min]:     0.163                   Wall time [min]:     0.005
 
 Calculation of the square root of the overlap matrix...
 Minimum eigenvalue of the overlap matrix: 0.174107E-03
 CPU time [min]:     0.190                   Wall time [min]:     0.006
 
 Calculation of kinetic energy integrals...
 CPU time [min]:     0.191                   Wall time [min]:     0.006
 Calculation of dipole moment integrals...
 CPU time [min]:     0.194                   Wall time [min]:     0.006
 Calculation of nuclear attraction integrals...
 CPU time [min]:     0.195                   Wall time [min]:     0.006
 Calculation of overlap integrals...
 CPU time [min]:     0.198                   Wall time [min]:     0.006
 
 Calculation of prescreening integrals...
 CPU time [min]:     0.353                   Wall time [min]:     0.008
 
 Calculation of two-center Coulomb integrals...
   1% done.
  12% done.
  25% done.
  40% done.
  51% done.
  66% done.
  77% done.
  88% done.
 100% done.
 CPU time [min]:     0.365                   Wall time [min]:     0.008
 
 Cholesky decomposition of the two-center matrix...
 Reciprocal of the condition number:  0.335304E-04
 CPU time [min]:     0.377                   Wall time [min]:     0.008
 

 ************************ 2026-02-26 16:16:19 *************************
 Executing scf...

 @scfsetup: integrals calculated directly
            mrcc/integ direct run
 @scfsetup: calculating on full matrices
            not using symmetry adapted basis
 @scfsetup: diis switched on
 @scfsetup: number of steps to extrapolate from  10
 @scfsetup: tolerance in energy deviation    0.100000E-07
            tolerance in density deviation    0.100000E-08
 @scfsetup: maximum number of iterations: 200
 @scfsetup: restricted closed shell hf calc
 @scfsetup: restarting scf from SCFDENSITIES file
 @scfsetup: occupation set:
            from initial orbitals
 @scfsetup: Parameter-set for SCF acceleration: normal
 @scfsetup: diis runs from iteration:   2
 @scfsetup: diis runs to iteration: 200
 @scfsetup: diis runs in every iteration
 @scfsetup: diiswatch is disabled                   
 @scfsetup: diis dtol criteria to switch on:      0.0000E+00
           (or the iteration number below is reached)
 @scfsetup: static damping scheme
            iteration step criteria to turn damping off: 3
 @scfsetup: dynamic level shifting
            tolarance in HOMO-LUMO gap:  0.200
            tolarance in density deviation:     0.0000E+00
            iteration step criteria to turn level shifting off: 8
 Allocation of 46.0 Gbytes of memory...
 ======================================================================
 ITERATION STEP   1
 CPU time [min]:     0.042                   Wall time [min]:     0.009
 

 SCF control                  : initial
 Damping factor/level shift   : 0.000/0.200
 DIIS [start/end/frequency]   :   2 /200 /  1

 Constructing Fock-matrix...
 Inverse square root: The matrix is not positive definite!
 
 Pipek-Mezey localization...
 Step  Convergence
   1   1.317347852768
   2   0.158126832179
   3   0.002768879794
   4   0.000126109305
   5   0.000011825243
   6   0.000001189150
   7   0.000000046469
   8   0.000000001936
 CPU time [min]:     0.070                   Wall time [min]:     0.009
 
 Constructing local fitting domains...
 Maximum number of atoms in fitting domains:    8
 Average number of atoms in fitting domains:    8.0
 
 First step of Coulomb + first step of exchange...
 Exchange contribution is evaluated for MOs 1 to 5.
   1% done.
  13% done.
  25% done.
  41% done.
  52% done.
  64% done.
  81% done.
  92% done.
 100% done.
 Fitting and assembly step of exchange...
 CPU time [min]:     0.211                   Wall time [min]:     0.012
 
 Second step of Coulomb...
   1% done.
  13% done.
  25% done.
  41% done.
  52% done.
  64% done.
  81% done.
  92% done.
 100% done.
 CPU time [min]:     0.252                   Wall time [min]:     0.012
 
 Gradient norm:      3.9698E-01
 RMS of [F,P]:                                         0.00343481051476
 RMS of difference density:                            0.00628518015091
 Gap [au]:  0.44873808
 ALPHA OCC:   5
 BETA  OCC:   5
 
 ***HARTREE-FOCK ENERGY IN STEP   1 IS        -56.1967825244039219 [AU]
 ======================================================================
 ITERATION STEP   2
 CPU time [min]:     0.277                   Wall time [min]:     0.013
 

 SCF control                  : diis
 Damping factor/level shift   : 0.000/0.000
 DIIS [start/end/frequency]   :   2 /200 /  1

 Constructing Fock-matrix...
 
 Pipek-Mezey localization...
 Step  Convergence
   1   0.000197147438
   2   0.000016071321
   3   0.000000191174
   4   0.000000002760
 CPU time [min]:     0.300                   Wall time [min]:     0.013
 
 Constructing local fitting domains...
 Maximum number of atoms in fitting domains:    8
 Average number of atoms in fitting domains:    8.0
 
 First step of Coulomb + first step of exchange...
 Exchange contribution is evaluated for MOs 1 to 5.
   1% done.
  13% done.
  25% done.
  41% done.
  52% done.
  64% done.
  81% done.
  92% done.
 100% done.
 Fitting and assembly step of exchange...
 CPU time [min]:     0.435                   Wall time [min]:     0.015
 
 Second step of Coulomb...
   1% done.
  13% done.
  25% done.
  41% done.
  52% done.
  64% done.
  81% done.
  92% done.
 100% done.
 CPU time [min]:     0.475                   Wall time [min]:     0.016
 
 Gradient norm:      3.1691E-02
 DIIS is running in this iteration step.
 RMS of [F,P]:                                         0.00026352590968
 RMS of difference density:                            0.00068743346851
 Gap [au]:  0.45112942
 ALPHA OCC:   5
 BETA  OCC:   5
 
 ***HARTREE-FOCK ENERGY IN STEP   2 IS        -56.2178402955607268 [AU]
 
 Step comparison  Energy Drift [au]  DIIS error drift  Gradient drift
        1            2.1058E-02         3.1713E-03       3.6529E-01
        2            5.6218E+01         1.0000E-09       3.6529E-01
 ======================================================================
 ITERATION STEP   3
 CPU time [min]:     0.499                   Wall time [min]:     0.016
 

 SCF control                  : diis
 Damping factor/level shift   : 0.000/0.000
 DIIS [start/end/frequency]   :   2 /200 /  1

 Constructing Fock-matrix...
 
 Pipek-Mezey localization...
 Step  Convergence
   1   0.021759975369
   2   0.026439572862
   3   0.000444264507
   4   0.000020870839
   5   0.000001882895
   6   0.000000075536
   7   0.000000007335
 CPU time [min]:     0.522                   Wall time [min]:     0.017
 
 Constructing local fitting domains...
 Local fitting domains are unchanged.
 
 First step of Coulomb + first step of exchange...
 Exchange contribution is evaluated for MOs 1 to 5.
   1% done.
  13% done.
  25% done.
  41% done.
  52% done.
  64% done.
  81% done.
  92% done.
 100% done.
 Fitting and assembly step of exchange...
 CPU time [min]:     0.655                   Wall time [min]:     0.019
 
 Second step of Coulomb...
   1% done.
  13% done.
  25% done.
  41% done.
  52% done.
  64% done.
  81% done.
  92% done.
 100% done.
 CPU time [min]:     0.695                   Wall time [min]:     0.019
 
 Gradient norm:      1.0703E-02
 DIIS is running in this iteration step.
 RMS of [F,P]:                                         0.00008235684453
 RMS of difference density:                            0.00019480348676
 Gap [au]:  0.45318661
 ALPHA OCC:   5
 BETA  OCC:   5
 
 ***HARTREE-FOCK ENERGY IN STEP   3 IS        -56.2187549369691624 [AU]
 
 Step comparison  Energy Drift [au]  DIIS error drift  Gradient drift
        2            9.1464E-04         1.8117E-04       2.0987E-02
 ======================================================================
 ITERATION STEP   4
 CPU time [min]:     0.720                   Wall time [min]:     0.020
 

 SCF control                  : diis
 Damping factor/level shift   : 0.000/0.000
 DIIS [start/end/frequency]   :   2 /200 /  1

 Constructing Fock-matrix...
 
 Pipek-Mezey localization...
 Step  Convergence
   1   0.020210124901
   2   0.027042686289
   3   0.000689761575
   4   0.000012893503
   5   0.000000253928
   6   0.000000007252
 CPU time [min]:     0.743                   Wall time [min]:     0.020
 
 Constructing local fitting domains...
 Local fitting domains are unchanged.
 
 First step of Coulomb + first step of exchange...
 Exchange contribution is evaluated for MOs 1 to 5.
   1% done.
  13% done.
  25% done.
  41% done.
  52% done.
  64% done.
  81% done.
  92% done.
 100% done.
 Fitting and assembly step of exchange...
 CPU time [min]:     0.873                   Wall time [min]:     0.022
 
 Second step of Coulomb...
   1% done.
  13% done.
  25% done.
  41% done.
  52% done.
  64% done.
  81% done.
  92% done.
 100% done.
 CPU time [min]:     0.913                   Wall time [min]:     0.023
 
 Gradient norm:      3.6919E-03
 DIIS is running in this iteration step.
 RMS of [F,P]:                                         0.00003005888458
 RMS of difference density:                            0.00004623005378
 Gap [au]:  0.45113228
 ALPHA OCC:   5
 BETA  OCC:   5
 
 ***HARTREE-FOCK ENERGY IN STEP   4 IS        -56.2188944346121033 [AU]
 
 Step comparison  Energy Drift [au]  DIIS error drift  Gradient drift
        3            1.3950E-04         5.2298E-05       7.0112E-03
 ======================================================================
 ITERATION STEP   5
 CPU time [min]:     0.939                   Wall time [min]:     0.023
 

 SCF control                  : diis
 Damping factor/level shift   : 0.000/0.000
 DIIS [start/end/frequency]   :   2 /200 /  1

 Constructing Fock-matrix...
 
 Pipek-Mezey localization...
 Step  Convergence
   1   0.030142073704
   2   0.025704345920
   3   0.001426803510
   4   0.000088934618
   5   0.000008453851
   6   0.000000778282
   7   0.000000078813
   8   0.000000008232
   9   0.000000000874
  10   0.000000000092
  11   0.000000000010
  12   0.000000000001
  13   0.000000000000
 CPU time [min]:     0.962                   Wall time [min]:     0.024
 
 Constructing local fitting domains...
 Local fitting domains are unchanged.
 
 First step of Coulomb + first step of exchange...
 Exchange contribution is evaluated for MOs 1 to 5.
   1% done.
  13% done.
  25% done.
  41% done.
  52% done.
  64% done.
  81% done.
  92% done.
 100% done.
 Fitting and assembly step of exchange...
 CPU time [min]:     1.095                   Wall time [min]:     0.026
 
 Second step of Coulomb...
   1% done.
  13% done.
  25% done.
  41% done.
  52% done.
  64% done.
  81% done.
  92% done.
 100% done.
 CPU time [min]:     1.136                   Wall time [min]:     0.027
 
 Gradient norm:      1.1603E-03
 DIIS is running in this iteration step.
 RMS of [F,P]:                                         0.00001364985203
 RMS of difference density:                            0.00002783209082
 Gap [au]:  0.45120011
 ALPHA OCC:   5
 BETA  OCC:   5
 
 ***HARTREE-FOCK ENERGY IN STEP   5 IS        -56.2189085394197008 [AU]
 
 Step comparison  Energy Drift [au]  DIIS error drift  Gradient drift
        4            1.4105E-05         1.6409E-05       2.5316E-03
 ======================================================================
 ITERATION STEP   6
 CPU time [min]:     1.162                   Wall time [min]:     0.027
 

 SCF control                  : diis
 Damping factor/level shift   : 0.000/0.000
 DIIS [start/end/frequency]   :   2 /200 /  1

 Constructing Fock-matrix...
 
 Pipek-Mezey localization...
 Step  Convergence
   1   0.041243833951
   2   0.036092287753
   3   0.001596108743
   4   0.000095939588
   5   0.000008606872
   6   0.000000864410
   7   0.000000090066
   8   0.000000009411
   9   0.000000000999
  10   0.000000000106
  11   0.000000000011
  12   0.000000000001
  13   0.000000000000
 CPU time [min]:     1.185                   Wall time [min]:     0.028
 
 Constructing local fitting domains...
 Local fitting domains are unchanged.
 
 First step of Coulomb + first step of exchange...
 Exchange contribution is evaluated for MOs 1 to 5.
   1% done.
  13% done.
  25% done.
  41% done.
  52% done.
  64% done.
  81% done.
  92% done.
 100% done.
 Fitting and assembly step of exchange...
 CPU time [min]:     1.317                   Wall time [min]:     0.030
 
 Second step of Coulomb...
   1% done.
  13% done.
  25% done.
  41% done.
  52% done.
  64% done.
  81% done.
  92% done.
 100% done.
 CPU time [min]:     1.357                   Wall time [min]:     0.030
 
 Gradient norm:      1.7262E-04
 DIIS is running in this iteration step.
 RMS of [F,P]:                                         0.00000192556743
 RMS of difference density:                            0.00000408886032
 Gap [au]:  0.45107033
 ALPHA OCC:   5
 BETA  OCC:   5
 
 ***HARTREE-FOCK ENERGY IN STEP   6 IS        -56.2189113668876601 [AU]
 
 Step comparison  Energy Drift [au]  DIIS error drift  Gradient drift
        5            2.8275E-06         1.1724E-05       9.8765E-04
 ======================================================================
 ITERATION STEP   7
 CPU time [min]:     1.382                   Wall time [min]:     0.031
 

 SCF control                  : diis
 Damping factor/level shift   : 0.000/0.000
 DIIS [start/end/frequency]   :   2 /200 /  1

 Constructing Fock-matrix...
 
 Pipek-Mezey localization...
 Step  Convergence
   1   0.041002292609
   2   0.036494839223
   3   0.001149761421
   4   0.000079851234
   5   0.000007780049
   6   0.000000772386
   7   0.000000081490
   8   0.000000008552
   9   0.000000000910
  10   0.000000000097
  11   0.000000000010
  12   0.000000000001
  13   0.000000000000
 CPU time [min]:     1.406                   Wall time [min]:     0.031
 
 Constructing local fitting domains...
 Local fitting domains are unchanged.
 
 First step of Coulomb + first step of exchange...
 Exchange contribution is evaluated for MOs 1 to 5.
   1% done.
  13% done.
  25% done.
  41% done.
  52% done.
  64% done.
  81% done.
  92% done.
 100% done.
 Fitting and assembly step of exchange...
 CPU time [min]:     1.539                   Wall time [min]:     0.033
 
 Second step of Coulomb...
   1% done.
  13% done.
  25% done.
  41% done.
  52% done.
  64% done.
  81% done.
  92% done.
 100% done.
 CPU time [min]:     1.579                   Wall time [min]:     0.034
 
 Gradient norm:      3.2626E-05
 DIIS is running in this iteration step.
 RMS of [F,P]:                                         0.00000031047115
 RMS of difference density:                            0.00000090675333
 Gap [au]:  0.45106729
 ALPHA OCC:   5
 BETA  OCC:   5
 
 ***HARTREE-FOCK ENERGY IN STEP   7 IS        -56.2189114157927605 [AU]
 
 Step comparison  Energy Drift [au]  DIIS error drift  Gradient drift
        6            4.8905E-08         1.6151E-06       1.3999E-04
 ======================================================================
 ITERATION STEP   8
 CPU time [min]:     1.607                   Wall time [min]:     0.034
 

 SCF control                  : diis
 Damping factor/level shift   : 0.000/0.000
 DIIS [start/end/frequency]   :   2 /200 /  1

 Constructing Fock-matrix...
 
 Pipek-Mezey localization...
 Step  Convergence
   1   0.041002251555
   2   0.036573526867
   3   0.001141299232
   4   0.000082492652
   5   0.000007751700
   6   0.000000787982
   7   0.000000082689
   8   0.000000008789
   9   0.000000000949
  10   0.000000000101
  11   0.000000000011
  12   0.000000000001
  13   0.000000000000
 CPU time [min]:     1.630                   Wall time [min]:     0.035
 
 Constructing local fitting domains...
 Local fitting domains are unchanged.
 
 First step of Coulomb + first step of exchange...
 Exchange contribution is evaluated for MOs 1 to 5.
   1% done.
  13% done.
  25% done.
  41% done.
  52% done.
  64% done.
  81% done.
  92% done.
 100% done.
 Fitting and assembly step of exchange...
 CPU time [min]:     1.762                   Wall time [min]:     0.037
 
 Second step of Coulomb...
   1% done.
  13% done.
  25% done.
  41% done.
  52% done.
  64% done.
  81% done.
  92% done.
 100% done.
 CPU time [min]:     1.802                   Wall time [min]:     0.038
 
 Gradient norm:      1.2087E-05
 DIIS is running in this iteration step.
 RMS of [F,P]:                                         0.00000010910823
 RMS of difference density:                            0.00000026248143
 Gap [au]:  0.45106718
 ALPHA OCC:   5
 BETA  OCC:   5
 
 ***HARTREE-FOCK ENERGY IN STEP   8 IS        -56.2189114181765675 [AU]
 
 Step comparison  Energy Drift [au]  DIIS error drift  Gradient drift
        7            2.3838E-09         2.0136E-07       2.0539E-05
 ======================================================================
 ITERATION STEP   9
 CPU time [min]:     1.829                   Wall time [min]:     0.038
 

 SCF control                  : diis
 Damping factor/level shift   : 0.000/0.000
 DIIS [start/end/frequency]   :   2 /200 /  1

 Constructing Fock-matrix...
 
 Pipek-Mezey localization...
 Step  Convergence
   1   0.041319619855
   2   0.036478681907
   3   0.001163171884
   4   0.000080955986
   5   0.000007849505
   6   0.000000784593
   7   0.000000081958
   8   0.000000008675
   9   0.000000000921
  10   0.000000000098
  11   0.000000000011
  12   0.000000000001
  13   0.000000000000
 CPU time [min]:     1.852                   Wall time [min]:     0.039
 
 Constructing local fitting domains...
 Local fitting domains are unchanged.
 
 First step of Coulomb + first step of exchange...
 Exchange contribution is evaluated for MOs 1 to 5.
   1% done.
  13% done.
  25% done.
  41% done.
  52% done.
  64% done.
  81% done.
  92% done.
 100% done.
 Fitting and assembly step of exchange...
 CPU time [min]:     1.984                   Wall time [min]:     0.041
 
 Second step of Coulomb...
   1% done.
  13% done.
  25% done.
  41% done.
  52% done.
  64% done.
  81% done.
  92% done.
 100% done.
 CPU time [min]:     2.024                   Wall time [min]:     0.041
 
 Gradient norm:      2.2554E-06
 DIIS is running in this iteration step.
 RMS of [F,P]:                                         0.00000002073267
 RMS of difference density:                            0.00000007058689
 Gap [au]:  0.45106705
 ALPHA OCC:   5
 BETA  OCC:   5
 
 ***HARTREE-FOCK ENERGY IN STEP   9 IS        -56.2189114184913663 [AU]
 
 Step comparison  Energy Drift [au]  DIIS error drift  Gradient drift
        8            3.1480E-10         8.8376E-08       9.8320E-06
 ======================================================================
 ITERATION STEP  10
 CPU time [min]:     2.049                   Wall time [min]:     0.042
 

 SCF control                  : diis
 Damping factor/level shift   : 0.000/0.000
 DIIS [start/end/frequency]   :   2 /200 /  1

 Constructing Fock-matrix...
 
 Pipek-Mezey localization...
 Step  Convergence
   1   0.041001966308
   2   0.036495287724
   3   0.001150089408
   4   0.000079899102
   5   0.000007768630
   6   0.000000775255
   7   0.000000080808
   8   0.000000008525
   9   0.000000000927
  10   0.000000000097
  11   0.000000000010
  12   0.000000000001
  13   0.000000000000
 CPU time [min]:     2.072                   Wall time [min]:     0.042
 
 Constructing local fitting domains...
 Local fitting domains are unchanged.
 
 First step of Coulomb + first step of exchange...
 Exchange contribution is evaluated for MOs 1 to 5.
   1% done.
  13% done.
  25% done.
  41% done.
  52% done.
  64% done.
  81% done.
  92% done.
 100% done.
 Fitting and assembly step of exchange...
 CPU time [min]:     2.203                   Wall time [min]:     0.044
 
 Second step of Coulomb...
   1% done.
  13% done.
  25% done.
  41% done.
  52% done.
  64% done.
  81% done.
  92% done.
 100% done.
 CPU time [min]:     2.243                   Wall time [min]:     0.045
 
 Gradient norm:      1.6650E-07
 DIIS is running in this iteration step.
 RMS of [F,P]:                                         0.00000000177966
 RMS of difference density:                            0.00000000884328
 Gap [au]:  0.45106706
 ALPHA OCC:   5
 BETA  OCC:   5
 
 ***HARTREE-FOCK ENERGY IN STEP  10 IS        -56.2189114185041205 [AU]
 
 Step comparison  Energy Drift [au]  DIIS error drift  Gradient drift
        9            1.2754E-11         1.8953E-08       2.0889E-06
 ======================================================================
 ITERATION STEP  11
 CPU time [min]:     2.269                   Wall time [min]:     0.045
 

 SCF control                  : diis
 Damping factor/level shift   : 0.000/0.000
 DIIS [start/end/frequency]   :   2 /200 /  1

 Constructing Fock-matrix...
 
 Pipek-Mezey localization...
 Step  Convergence
   1   0.040689937286
   2   0.036494446383
   3   0.001625460598
   4   0.000098907923
   5   0.000008843757
   6   0.000000849454
   7   0.000000086415
   8   0.000000009063
   9   0.000000000958
  10   0.000000000102
  11   0.000000000011
  12   0.000000000001
  13   0.000000000000
 CPU time [min]:     2.292                   Wall time [min]:     0.046
 
 Constructing local fitting domains...
 Local fitting domains are unchanged.
 
 First step of Coulomb + first step of exchange...
 Exchange contribution is evaluated for MOs 1 to 5.
   1% done.
  13% done.
  25% done.
  41% done.
  52% done.
  64% done.
  81% done.
  92% done.
 100% done.
 Fitting and assembly step of exchange...
 CPU time [min]:     2.423                   Wall time [min]:     0.048
 
 Second step of Coulomb...
   1% done.
  13% done.
  25% done.
  41% done.
  52% done.
  64% done.
  81% done.
  92% done.
 100% done.
 CPU time [min]:     2.464                   Wall time [min]:     0.048
 
 Gradient norm:      1.3447E-08
 DIIS is running in this iteration step.
 RMS of [F,P]:                                         0.00000000018884
 RMS of difference density:                            0.00000000069028
 Gap [au]:  0.45106706
 ALPHA OCC:   5
 BETA  OCC:   5
 
 ***HARTREE-FOCK ENERGY IN STEP  11 IS        -56.2189114185041987 [AU]
 
 Step comparison  Energy Drift [au]  DIIS error drift  Gradient drift
       10            7.8160E-14         1.5908E-09       1.5305E-07
 
 The SCF iteration has converged.
 An extra iteration will be performed to calculate accurate SCF energy.
 
 ======================================================================
 ITERATION STEP  12
 CPU time [min]:     2.490                   Wall time [min]:     0.049
 

 SCF control                  : diis
 Damping factor/level shift   : 0.000/0.000
 DIIS [start/end/frequency]   :   2 /200 /  1

 Constructing Fock-matrix...
 
 Pipek-Mezey localization...
 Step  Convergence
   1   0.041286898579
   2   0.037619131244
   3   0.001251024081
   4   0.000092050000
   5   0.000008282553
   6   0.000000824483
   7   0.000000085632
   8   0.000000009074
   9   0.000000000965
  10   0.000000000103
  11   0.000000000011
  12   0.000000000001
  13   0.000000000000
 CPU time [min]:     2.514                   Wall time [min]:     0.049
 
 Constructing local fitting domains...
 Local fitting domains are unchanged.
 
 First step of Coulomb + first step of exchange...
 Exchange contribution is evaluated for MOs 1 to 5.
   1% done.
  13% done.
  25% done.
  41% done.
  52% done.
  64% done.
  81% done.
  92% done.
 100% done.
 Fitting and assembly step of exchange...
 CPU time [min]:     2.645                   Wall time [min]:     0.051
 
 Second step of Coulomb...
   1% done.
  13% done.
  25% done.
  41% done.
  52% done.
  64% done.
  81% done.
  92% done.
 100% done.
 CPU time [min]:     2.685                   Wall time [min]:     0.052
 
 Gradient norm:      2.4290E-09
 RMS of [F,P]:                                         0.00000000002871
 RMS of difference density:                            0.00000000006321
 Gap [au]:  0.45106706
 ALPHA OCC:   5
 BETA  OCC:   5
 
 ***HARTREE-FOCK ENERGY IN STEP  12 IS        -56.2189114185042911 [AU]
 
 Step comparison  Energy Drift [au]  DIIS error drift  Gradient drift
       11            9.2371E-14         1.6013E-10       1.1018E-08
 ======================================================================
 
 SUCCESS...
 THE SCF ITERATION HAS CONVERGED!
 
                   A   
 FINAL ALPHA OCC:   5
 FINAL BETA  OCC:   5
 
 ***FINAL HARTREE-FOCK ENERGY:        -56.2189114185042911 [AU]
 
 Orbital energies [au]:
      Irrep         Alpha          Beta
    1   A        -15.546334     -15.546334
    2   A         -1.134246      -1.134246
    3   A         -0.623412      -0.623412
    4   A         -0.623377      -0.623377
    5   A         -0.427438      -0.427438
 
    6   A          0.023629       0.023629
    7   A          0.039232       0.039232
    8   A          0.045641       0.045641
    9   A          0.051685       0.051685
   10   A          0.062886       0.062886
   11   A          0.069878       0.069878
   12   A          0.111356       0.111356
   13   A          0.125955       0.125955
   14   A          0.137935       0.137935
   15   A          0.144139       0.144139
   16   A          0.151489       0.151489
   17   A          0.158782       0.158782
   18   A          0.180507       0.180507
   19   A          0.192563       0.192563
   20   A          0.210354       0.210354
   21   A          0.221774       0.221774
   22   A          0.229344       0.229344
   23   A          0.239473       0.239473
   24   A          0.250361       0.250361
   25   A          0.266771       0.266771
   26   A          0.270996       0.270996
   27   A          0.302013       0.302013
   28   A          0.309926       0.309926
   29   A          0.322141       0.322141
   30   A          0.350454       0.350454
   31   A          0.357103       0.357103
   32   A          0.361887       0.361887
   33   A          0.371170       0.371170
   34   A          0.381038       0.381038
   35   A          0.395186       0.395186
   36   A          0.401025       0.401025
   37   A          0.412846       0.412846
   38   A          0.414613       0.414613
   39   A          0.436109       0.436109
   40   A          0.455529       0.455529
   41   A          0.466425       0.466425
   42   A          0.489736       0.489736
   43   A          0.494004       0.494004
   44   A          0.539756       0.539756
   45   A          0.549047       0.549047
   46   A          0.572648       0.572648
   47   A          0.591584       0.591584
   48   A          0.602682       0.602682
   49   A          0.615192       0.615192
   50   A          0.627993       0.627993
   51   A          0.662936       0.662936
   52   A          0.680662       0.680662
   53   A          0.698965       0.698965
   54   A          0.703013       0.703013
   55   A          0.726429       0.726429
   56   A          0.760316       0.760316
   57   A          0.775826       0.775826
   58   A          0.800564       0.800564
   59   A          0.808223       0.808223
   60   A          0.822084       0.822084
   61   A          0.853377       0.853377
   62   A          0.874559       0.874559
   63   A          0.886678       0.886678
   64   A          0.915450       0.915450
   65   A          0.917815       0.917815
   66   A          0.938282       0.938282
   67   A          0.960968       0.960968
   68   A          0.972307       0.972307
   69   A          0.999462       0.999462
   70   A          1.001563       1.001563
   71   A          1.009223       1.009223
   72   A          1.032553       1.032553
   73   A          1.039263       1.039263
   74   A          1.061239       1.061239
   75   A          1.066955       1.066955
   76   A          1.073243       1.073243
   77   A          1.081489       1.081489
   78   A          1.095666       1.095666
   79   A          1.105307       1.105307
   80   A          1.114404       1.114404
   81   A          1.126868       1.126868
   82   A          1.135470       1.135470
   83   A          1.148236       1.148236
   84   A          1.161983       1.161983
   85   A          1.179613       1.179613
   86   A          1.186363       1.186363
   87   A          1.220914       1.220914
   88   A          1.229293       1.229293
   89   A          1.264277       1.264277
   90   A          1.289106       1.289106
   91   A          1.309159       1.309159
   92   A          1.344005       1.344005
   93   A          1.364761       1.364761
   94   A          1.369565       1.369565
   95   A          1.381584       1.381584
   96   A          1.387749       1.387749
   97   A          1.419478       1.419478
   98   A          1.439854       1.439854
   99   A          1.474705       1.474705
  100   A          1.576464       1.576464
  101   A          1.603200       1.603200
  102   A          1.610779       1.610779
  103   A          1.647983       1.647983
  104   A          1.672656       1.672656
  105   A          1.693707       1.693707
  106   A          1.704352       1.704352
  107   A          1.758823       1.758823
  108   A          1.769536       1.769536
  109   A          1.840243       1.840243
  110   A          1.864656       1.864656
  111   A          1.888484       1.888484
  112   A          1.903435       1.903435
  113   A          1.939751       1.939751
  114   A          1.946601       1.946601
  115   A          1.963903       1.963903
  116   A          2.015627       2.015627
  117   A          2.025997       2.025997
  118   A          2.043773       2.043773
  119   A          2.061439       2.061439
  120   A          2.081523       2.081523
  121   A          2.090675       2.090675
  122   A          2.107120       2.107120
  123   A          2.160621       2.160621
  124   A          2.206877       2.206877
  125   A          2.223958       2.223958
  126   A          2.278068       2.278068
  127   A          2.328857       2.328857
  128   A          2.390567       2.390567
  129   A          2.397346       2.397346
  130   A          2.411833       2.411833
  131   A          2.439505       2.439505
  132   A          2.467609       2.467609
  133   A          2.514778       2.514778
  134   A          2.520754       2.520754
  135   A          2.672433       2.672433
  136   A          2.714511       2.714511
  137   A          2.755388       2.755388
  138   A          2.809944       2.809944
  139   A          2.848158       2.848158
  140   A          2.911571       2.911571
  141   A          3.013641       3.013641
  142   A          3.191039       3.191039
  143   A          3.224159       3.224159
  144   A          3.424144       3.424144
  145   A          3.579893       3.579893
  146   A          3.604873       3.604873
  147   A          3.993978       3.993978
  148   A          4.008909       4.008909
  149   A          4.054509       4.054509
  150   A          4.147860       4.147860
  151   A          4.150012       4.150012
  152   A          4.213361       4.213361
  153   A          4.217283       4.217283
  154   A          4.248118       4.248118
  155   A          4.258534       4.258534
  156   A          4.293335       4.293335
  157   A          4.317490       4.317490
  158   A          4.343824       4.343824
  159   A          4.376805       4.376805
  160   A          4.396370       4.396370
  161   A          4.416547       4.416547
  162   A          4.433737       4.433737
  163   A          4.469296       4.469296
  164   A          4.479948       4.479948
  165   A          4.512586       4.512586
  166   A          4.544789       4.544789
  167   A          4.557096       4.557096
  168   A          4.566937       4.566937
  169   A          4.620154       4.620154
  170   A          4.679731       4.679731
  171   A          4.698199       4.698199
  172   A          4.753029       4.753029
  173   A          4.770378       4.770378
  174   A          4.806247       4.806247
  175   A          4.847026       4.847026
  176   A          4.865768       4.865768
  177   A          4.917626       4.917626
  178   A          4.921030       4.921030
  179   A          4.947829       4.947829
  180   A          4.966288       4.966288
  181   A          4.988968       4.988968
  182   A          5.006990       5.006990
  183   A          5.034721       5.034721
  184   A          5.055801       5.055801
  185   A          5.093871       5.093871
  186   A          5.129840       5.129840
  187   A          5.244803       5.244803
  188   A          5.313779       5.313779
  189   A          5.324428       5.324428
  190   A          5.326697       5.326697
  191   A          5.456144       5.456144
  192   A          5.479664       5.479664
  193   A          5.501506       5.501506
  194   A          5.679123       5.679123
  195   A          5.685465       5.685465
  196   A          5.721658       5.721658
  197   A          5.733036       5.733036
  198   A          5.748066       5.748066
  199   A          5.827249       5.827249
  200   A          5.864062       5.864062
  201   A          5.894980       5.894980
  202   A          6.027233       6.027233
  203   A          6.171198       6.171198
  204   A          6.197162       6.197162
  205   A          6.258259       6.258259
  206   A          6.262698       6.262698
  207   A          6.327734       6.327734
  208   A          6.411571       6.411571
  209   A          6.614822       6.614822
  210   A          6.838225       6.838225
  211   A          6.852400       6.852400
  212   A          6.877945       6.877945
  213   A          6.888641       6.888641
  214   A          7.170704       7.170704
  215   A          7.426121       7.426121
  216   A          7.569409       7.569409
  217   A          7.597467       7.597467
  218   A          7.657927       7.657927
  219   A          7.675638       7.675638
  220   A          7.803825       7.803825
  221   A          7.814382       7.814382
  222   A          7.858826       7.858826
  223   A          9.148164       9.148164
  224   A          9.148390       9.148390
  225   A          9.593151       9.593151
  226   A         10.883411      10.883411
  227   A         10.929214      10.929214
  228   A         11.866475      11.866475
  229   A         16.921168      16.921168
  230   A         58.634301      58.634301
 
 RETURNING FROM SCF ALGORITHM
 ======================================================================

 ************************ 2026-02-26 16:16:25 *************************
 Executing orbloc...

 Allocation of 46.0 Gbytes of memory...

 Localization of occupied orbitals...
 Localization type: Boys
 Localization algorithm: Jacobi
 
 Step   Convergence
   1   1.279363623132
   2   0.360873225667
   3   0.000759200517
   4   0.000002140148
   5   0.000000019861
   6   0.000000000170

 Localization succeeded.

 File MOCOEF is overwritten with localized orbitals.
 
