 **********************************************************************
                          MRCC program system
 **********************************************************************
 
                              Written by
     Mihaly Kallay, Peter R. Nagy, David Mester, Laszlo Gyevi-Nagy,
        Jozsef Csoka, P. Bernat Szabo, Zoltan Rolik, Gyula Samu,
     Jozsef Csontos, Bence Hegely, Adam Ganyecz, Istvan Ladjanszki,
       Lorant Szegedy, Bence Ladoczki, Klara Petrov, Mate Farkas,
                    Pal D. Mezei, and Reka A. Horvath
 
        Department of Physical Chemistry and Materials Science
            Budapest University of Technology and Economics
                  Budapest P.O.Box 91, H-1521 Hungary
 
                              www.mrcc.hu
 
                     Release date: August 28, 2023

 ************************ 2026-02-26 16:12:22 *************************
 Executing minp...

 Reading input from MINP...
 
 Input file:
 
charge=0
mult=1
calc=LNO-CCSD(T)
basis=aug-cc-pVTZ
symm=off
verbosity=3
unit=angs
scfalg=locfit1
scfmaxit=200
scftol=8
basis_sm=def2-SVP
usedisk=0
aocd=extra
chtol=1d-6
iesttol=0.001
scfiguess=small
lcorthr=tight
mem=46GB
ghost=serialno


geom=xyz
8

N      1.04470516527    1.04467805385    1.04472620470
H      1.86198065727    1.39631551807    0.53263274880
H      1.39638040304    0.53260276511    1.86208371977
H      0.53256262530    1.86191282917    1.39633599251
N      3.60995473454    1.52057191074    4.08577558721
H      4.42722968319    1.16893531034    4.59786809656
H      3.96163147006    2.03264798552    3.26841604077
H      3.09781293566    0.70333789254    3.73416418411
 
 
 Checking keyword combinations...
 
 Keywords:
 
 active=none
 agrid=ld0006-ld0590
 agrid_pssp=ld0006-ld0194
 agrid_pssp_sm=ld0006-ld0074
 basis=aug-cc-pvtz
 basis_sm=def2-svp
 basopt=off
 bfbasis=none
 bfgsmem=10
 bfgstol=1.0d-3
 boysalg=jacobi
 bpcompo=0.985
 bpcompv=0.98
 bpdfo=0.985
 bpocc=0.99995d0
 bppdo=0.999d0
 bppdv=0.98
 bpedo=0.99995d0
 bpedv=0.995d0
 calc=ccsd(t)
 ccmaxit=50
 ccprog=ccsd
 ccsdalg=dfdirect
 ccsdmkl=seq
 ccsdrest=off
 ccsdthreads=2
 cctol=5
 charge=0
 cialg=direct
 ciguess=off
 cmpgrp=auto
 comprest=off
 coord_sys=ric
 core=frozen
 corembed=off
 csapprox=off
 cvs=off
 dboc=off
 delocsomofact=
 dendec=cholesky
 dens=0
 denscorr=0
 dfalg=lineq
 dfbasis_cab=none
 dfbasis_cor=auto
 dfbasis_scf=auto
 dfbasis_scf_sm=auto
 dfintran=drpa
 dft=off
 dhexc=adc(2)
 diag=david
 docc=
 domrad=10.d0
 drpaalg=auto
 dual=off
 dual_df=off
 ecp=auto
 edisp=off
 edisp_embed=off
 embed=off
 epairestfact=off
 epairscale=1.d0
 etemp=300
 epert=none
 eps=
 espcharge=off
 excrad=1.0
 excrad_fin=0.100000000D-02
 fitting=coulomb
 fmm=off
 fmmord=8
 fnonorb=
 freq=off
 gamma=1.1d0
 gauss=spher
 geom=xyz
 gopt=off
 ghost=serialno
 gtol=7
 grdens=off
 grid=auto
 grid_sm=auto
 gridbatch_cos=2000
 grtol=10
 guido_ct=off
 hamilton=dc
 iface=none
 intalg=auto
 ip_ea=off
 itol=12
 laptol=1.d-3
 lccoporder=lccfirst
 lcorthr=tight
 lccrest=off
 ldfgrad_tol=8
 lmp2dens=on
 lnoepso=3e-6
 lnoepsv=3e-7
 localcc=2021
 localcorrsymm=off
 locintrf=direct
 mact=
 maxact=off
 maxdim=200
 maxex=0
 maxmicroit=100
 mcscfiguess=hf
 mem=46gb
 mmprog=
 molden=on
 mpitasks=1
 mulmet=3
 mult=1
 nab=off
 nacto=0
 nactv=0
 naf_amp=3.16d-3
 naf_cor=1e-2
 naf_f12=off
 naf_scf=off
 nafalg=albe
 nafdens=off
 naftyp=jpq
 nchol=auto
 ndeps=1e-3
 nstate=1
 nsing=0
 nto=off
 ntrip=0
 num_grad=off
 occ=
 occri=off
 oniom=off
 oniom_eechg=off
 oniom_pcm=off
 oniom_qcorr=off
 optalg=
 optmaxit=50
 optetol=1e-6
 optex=0
 optgtol=1e-4
 optstol=1e-3
 orblocc=off
 orbloce=off
 orbloco=boys
 orblocv=pao
 orblocguess=cholesky
 osveps=-1.d0
 ovirt=off
 ovltol=1e-7
 ovosnorb=80.0
 pao_subsys_tol=1e-3
 pcm=off
 popul=off
 pressure=100000
 pssp=off
 ptfreq=0.0
 ptthreads=2
 qmreg=
 qmmm=off
 qro=off
 qscf=off
 redcost_exc=off
 redcost_tddft=0.985d0
 refdet=none
 rest=0
 rgrid=log3
 rism=off
 rohfcore=standard
 rohftype=semicanonical
 scfalg=locfit1
 scf_conv=auto
 scfdamp=0.0d0
 scfdamp_mode=off
 scfdamp_end=200
 scfdamp_dampstep=0.d0
 scfdamp_dtol=0.0d0
 scfdamp_maxfact=0.0d0
 scfdamp_minfact=0.0d0
 scfdiis=on
 scfdiis_dtol=0.0d0
 scfdiis_end=200
 scfdiis_start=2
 scfdiis_step=1
 scfdiis_watch=off
 scfdiis_wrange=10
 scfdiis_wlimit=5
 scfdiis_delmax=2
 scfdtol=9
 scfext=10
 scfguessdens=
 scfiguess=small
 scfloc=pm
 scflshift=0.20
 scflshift_end=8
 scflshift_dtol=0.0
 scflshift_gaptol=0.20
 scfmaxit=200
 scftype=
 scftol=8
 scspe=1.d0
 scsph=1.d0
 scsps=1.2d0
 scsps_t=1.2d0
 scspt=0.33333333333333
 scspt_t=0.33333333333333
 scspv=1.d0
 spairtol=-1.d0
 sqmprog=
 subminp=top
 symm=0
 talg=lapl
 temp=298.15
 test=off
 theodore=off
 tlmo=0.999
 tpao=0.94
 tprint=off
 uncontract=off
 unit=angs
 usedisk=0
 verbosity=3
 wpairtol=3.d-6
 
 Calculating integrals for small-basis SCF...

 ************************ 2026-02-26 16:12:23 *************************
 Executing integ...

 Allocation of 46.0 Gbytes of memory...
 
 
 Number of atoms:                  8
 Charge:                           0
 Number of electrons:             20
 Number of core electrons:         4
 Spin multiplicity:                1
 
                 Cartesian coordinates [bohr]      Atomic mass [AMU]  Z
   1  N     1.97420664    1.97415541    1.97424640    14.003074       7
   2  H     3.51863349    2.63865391    1.00653002     1.007825       1
   3  H     2.63877653    1.00647336    3.51882825     1.007825       1
   4  H     1.00639751    3.51850532    2.63869260     1.007825       1
   5  N     6.82182577    2.87346447    7.72099687    14.003074       7
   6  H     8.36625160    2.20896759    8.68871146     1.007825       1
   7  H     7.48639849    3.84114800    6.17641118     1.007825       1
   8  H     5.85401804    1.32911599    7.05654762     1.007825       1
 
 This molecule is an asymmetric top.
 
 Point group: C1  
 Computational point group: C1  
 
 Cartesian coordinates in standard orientation [bohr]
   1  N    -3.83260555   -0.06174637   -0.04678606
   2  H    -3.48952263    1.61051280   -0.96826906
   3  H    -2.33174091   -1.23553303   -0.41205990
   4  H    -3.81321919    0.31785083    1.85549942
   5  N     3.73685591   -0.00521896    0.13587966
   6  H     5.40661285   -0.26975124   -0.81554726
   7  H     3.10212009    1.77431891   -0.30476611
   8  H     2.45612880   -1.26695857   -0.59275471
 
 Nuclear repulsion energy [au]:         37.120111737452
 
Warning: for H atoms in the case of dfbasis_scf=auto the AO basis is set as dfbasis_scf instead of def2-qzvp(pd)-ri-jk because the AO basis is larger. Set the dfbasis_scf=def2-qzvp(pd)-ri-jk in MINP if that is desired.
 
 
 Basis set information:
 
 Maximum angular momentum: g
 Maximum number of contracted Gaussians:   10
 Maximum number of primitive Gaussians:    14
 Spherical harmonic GTOs are used.
 
 
 Conventional basis set:
 
   1  N  def2-svp [ 7s 4p 1d | 3s 2p 1d ]
   2  H  def2-svp [ 4s 1p | 2s 1p ]
   3  H  def2-svp [ 4s 1p | 2s 1p ]
   4  H  def2-svp [ 4s 1p | 2s 1p ]
   5  N  def2-svp [ 7s 4p 1d | 3s 2p 1d ]
   6  H  def2-svp [ 4s 1p | 2s 1p ]
   7  H  def2-svp [ 4s 1p | 2s 1p ]
   8  H  def2-svp [ 4s 1p | 2s 1p ]
 
 Basis functions:
            1             2             3             4             5             6             7             8             9            10
    0    1N1s          1N2s          1N3s          1N1pz         1N1py         1N1px         1N2pz         1N2py         1N2px         1N1d-2    
    1    1N1d-1        1N1d0         1N1d+1        1N1d+2        2H1s          2H2s          2H1pz         2H1py         2H1px         3H1s      
    2    3H2s          3H1pz         3H1py         3H1px         4H1s          4H2s          4H1pz         4H1py         4H1px         5N1s      
    3    5N2s          5N3s          5N1pz         5N1py         5N1px         5N2pz         5N2py         5N2px         5N1d-2        5N1d-1    
    4    5N1d0         5N1d+1        5N1d+2        6H1s          6H2s          6H1pz         6H1py         6H1px         7H1s          7H2s      
    5    7H1pz         7H1py         7H1px         8H1s          8H2s          8H1pz         8H1py         8H1px     
 
 Maximum number of basis functions per shell:    6
 Total number of basis functions:     58
 
 
 Fitting basis set for the SCF calculation:
 
   1  N  def2-qzvpp-ri-jk [ 14s 10p 6d 2f 1g | 10s 8p 4d 2f 1g ]
   2  H  def2-qzvpp [ 7s 3p 2d 1f | 4s 3p 2d 1f ]
   3  H  def2-qzvpp [ 7s 3p 2d 1f | 4s 3p 2d 1f ]
   4  H  def2-qzvpp [ 7s 3p 2d 1f | 4s 3p 2d 1f ]
   5  N  def2-qzvpp-ri-jk [ 14s 10p 6d 2f 1g | 10s 8p 4d 2f 1g ]
   6  H  def2-qzvpp [ 7s 3p 2d 1f | 4s 3p 2d 1f ]
   7  H  def2-qzvpp [ 7s 3p 2d 1f | 4s 3p 2d 1f ]
   8  H  def2-qzvpp [ 7s 3p 2d 1f | 4s 3p 2d 1f ]
 
 Basis functions:
            1             2             3             4             5             6             7             8             9            10
    0    1N1s          1N2s          1N3s          1N4s          1N5s          1N6s          1N7s          1N8s          1N9s          1N10s     
    1    1N1pz         1N1py         1N1px         1N2pz         1N2py         1N2px         1N3pz         1N3py         1N3px         1N4pz     
    2    1N4py         1N4px         1N5pz         1N5py         1N5px         1N6pz         1N6py         1N6px         1N7pz         1N7py     
    3    1N7px         1N8pz         1N8py         1N8px         1N1d-2        1N1d-1        1N1d0         1N1d+1        1N1d+2        1N2d-2    
    4    1N2d-1        1N2d0         1N2d+1        1N2d+2        1N3d-2        1N3d-1        1N3d0         1N3d+1        1N3d+2        1N4d-2    
    5    1N4d-1        1N4d0         1N4d+1        1N4d+2        1N1f-3        1N1f-2        1N1f-1        1N1f0         1N1f+1        1N1f+2    
    6    1N1f+3        1N2f-3        1N2f-2        1N2f-1        1N2f0         1N2f+1        1N2f+2        1N2f+3        1N1g-4        1N1g-3    
    7    1N1g-2        1N1g-1        1N1g0         1N1g+1        1N1g+2        1N1g+3        1N1g+4        2H1s          2H2s          2H3s      
    8    2H4s          2H1pz         2H1py         2H1px         2H2pz         2H2py         2H2px         2H3pz         2H3py         2H3px     
    9    2H1d-2        2H1d-1        2H1d0         2H1d+1        2H1d+2        2H2d-2        2H2d-1        2H2d0         2H2d+1        2H2d+2    
   10    2H1f-3        2H1f-2        2H1f-1        2H1f0         2H1f+1        2H1f+2        2H1f+3        3H1s          3H2s          3H3s      
   11    3H4s          3H1pz         3H1py         3H1px         3H2pz         3H2py         3H2px         3H3pz         3H3py         3H3px     
   12    3H1d-2        3H1d-1        3H1d0         3H1d+1        3H1d+2        3H2d-2        3H2d-1        3H2d0         3H2d+1        3H2d+2    
   13    3H1f-3        3H1f-2        3H1f-1        3H1f0         3H1f+1        3H1f+2        3H1f+3        4H1s          4H2s          4H3s      
   14    4H4s          4H1pz         4H1py         4H1px         4H2pz         4H2py         4H2px         4H3pz         4H3py         4H3px     
   15    4H1d-2        4H1d-1        4H1d0         4H1d+1        4H1d+2        4H2d-2        4H2d-1        4H2d0         4H2d+1        4H2d+2    
   16    4H1f-3        4H1f-2        4H1f-1        4H1f0         4H1f+1        4H1f+2        4H1f+3        5N1s          5N2s          5N3s      
   17    5N4s          5N5s          5N6s          5N7s          5N8s          5N9s          5N10s         5N1pz         5N1py         5N1px     
   18    5N2pz         5N2py         5N2px         5N3pz         5N3py         5N3px         5N4pz         5N4py         5N4px         5N5pz     
   19    5N5py         5N5px         5N6pz         5N6py         5N6px         5N7pz         5N7py         5N7px         5N8pz         5N8py     
   20    5N8px         5N1d-2        5N1d-1        5N1d0         5N1d+1        5N1d+2        5N2d-2        5N2d-1        5N2d0         5N2d+1    
   21    5N2d+2        5N3d-2        5N3d-1        5N3d0         5N3d+1        5N3d+2        5N4d-2        5N4d-1        5N4d0         5N4d+1    
   22    5N4d+2        5N1f-3        5N1f-2        5N1f-1        5N1f0         5N1f+1        5N1f+2        5N1f+3        5N2f-3        5N2f-2    
   23    5N2f-1        5N2f0         5N2f+1        5N2f+2        5N2f+3        5N1g-4        5N1g-3        5N1g-2        5N1g-1        5N1g0     
   24    5N1g+1        5N1g+2        5N1g+3        5N1g+4        6H1s          6H2s          6H3s          6H4s          6H1pz         6H1py     
   25    6H1px         6H2pz         6H2py         6H2px         6H3pz         6H3py         6H3px         6H1d-2        6H1d-1        6H1d0     
   26    6H1d+1        6H1d+2        6H2d-2        6H2d-1        6H2d0         6H2d+1        6H2d+2        6H1f-3        6H1f-2        6H1f-1    
   27    6H1f0         6H1f+1        6H1f+2        6H1f+3        7H1s          7H2s          7H3s          7H4s          7H1pz         7H1py     
   28    7H1px         7H2pz         7H2py         7H2px         7H3pz         7H3py         7H3px         7H1d-2        7H1d-1        7H1d0     
   29    7H1d+1        7H1d+2        7H2d-2        7H2d-1        7H2d0         7H2d+1        7H2d+2        7H1f-3        7H1f-2        7H1f-1    
   30    7H1f0         7H1f+1        7H1f+2        7H1f+3        8H1s          8H2s          8H3s          8H4s          8H1pz         8H1py     
   31    8H1px         8H2pz         8H2py         8H2px         8H3pz         8H3py         8H3px         8H1d-2        8H1d-1        8H1d0     
   32    8H1d+1        8H1d+2        8H2d-2        8H2d-1        8H2d0         8H2d+1        8H2d+2        8H1f-3        8H1f-2        8H1f-1    
   33    8H1f0         8H1f+1        8H1f+2        8H1f+3    
 
 Maximum number of basis functions per shell:   24
 Total number of basis functions:    334
 
 
 Initializing the SAD routines for the initial guess...
 Checking the files required for the initial guess...
 Density files have not been found for the initial guess.
 Generating SCFDENSITIES.N.def2-svp.0
 Generating SCFDENSITIES.H.def2-svp.0
 CPU time [min]:     0.212                   Wall time [min]:     0.139
 
 Character table for point group C1:
 
          E  
    A     1
 
 Number of basis functions per irrep:
    A      58
 
 
 Calculation of overlap integrals...
 CPU time [min]:     0.217                   Wall time [min]:     0.140
 
 Calculation of the square root of the overlap matrix...
 Minimum eigenvalue of the overlap matrix: 0.241558E-01
 CPU time [min]:     0.229                   Wall time [min]:     0.140
 
 Calculation of kinetic energy integrals...
 CPU time [min]:     0.230                   Wall time [min]:     0.140
 Calculation of dipole moment integrals...
 CPU time [min]:     0.233                   Wall time [min]:     0.140
 Calculation of nuclear attraction integrals...
 CPU time [min]:     0.234                   Wall time [min]:     0.140
 
 Calculation of prescreening integrals...
 CPU time [min]:     0.245                   Wall time [min]:     0.140
 
 Calculation of two-center Coulomb integrals...
   1% done.
  13% done.
  25% done.
  36% done.
  50% done.
  64% done.
  79% done.
  90% done.
 100% done.
 CPU time [min]:     0.257                   Wall time [min]:     0.140
 
 Cholesky decomposition of the two-center matrix...
 Reciprocal of the condition number:  0.112773E-04
 CPU time [min]:     0.272                   Wall time [min]:     0.141
 
 
 Running small-basis SCF...

 ************************ 2026-02-26 16:12:31 *************************
 Executing scf...

 @scfsetup: integrals calculated directly
            mrcc/integ direct run
 @scfsetup: calculating on full matrices
            not using symmetry adapted basis
 @scfsetup: diis switched on
 @scfsetup: number of steps to extrapolate from  10
 @scfsetup: tolerance in energy deviation    0.100000E-07
            tolerance in density deviation    0.100000E-08
 @scfsetup: maximum number of iterations: 200
 @scfsetup: restricted closed shell hf calc
 @scfsetup: starting scf from superposition of atomic densities
 @scfsetup: occupation set:
            from initial orbitals
 @scfsetup: Parameter-set for SCF acceleration: normal
 @scfsetup: diis runs from iteration:   2
 @scfsetup: diis runs to iteration: 200
 @scfsetup: diis runs in every iteration
 @scfsetup: diiswatch is disabled                   
 @scfsetup: diis dtol criteria to switch on:      0.0000E+00
           (or the iteration number below is reached)
 @scfsetup: static damping scheme
            iteration step criteria to turn damping off: 3
 @scfsetup: dynamic level shifting
            tolarance in HOMO-LUMO gap:  0.200
            tolarance in density deviation:     0.0000E+00
            iteration step criteria to turn level shifting off: 8
 Allocation of 46.0 Gbytes of memory...
 ======================================================================
 ITERATION STEP   1
 CPU time [min]:     0.016                   Wall time [min]:     0.010
 

 SCF control                  : initial
 Damping factor/level shift   : 0.000/0.200
 DIIS [start/end/frequency]   :   2 /200 /  1

 Constructing Fock-matrix...
 
 Pipek-Mezey localization...
 Step  Convergence
   1   5.752523471280
   2   0.927582582138
   3   0.073219848106
   4   0.000087216338
   5   0.000000450717
   6   0.000000014797
   7   0.000000000706
 CPU time [min]:     0.044                   Wall time [min]:     0.010
 
 Constructing local fitting domains...
 Maximum number of atoms in fitting domains:    5
 Average number of atoms in fitting domains:    4.2
 
 First step of Coulomb + first step of exchange...
 Exchange contribution is evaluated for MOs 1 to 10.
   3% done.
  14% done.
  25% done.
  43% done.
  55% done.
  69% done.
  84% done.
 100% done.
 Fitting and assembly step of exchange...
 CPU time [min]:     0.140                   Wall time [min]:     0.012
 
 Second step of Coulomb...
   3% done.
  14% done.
  25% done.
  43% done.
  55% done.
  69% done.
  84% done.
 100% done.
 CPU time [min]:     0.156                   Wall time [min]:     0.012
 
 Gradient norm:      2.3779E+00
 RMS of [F,P]:                                         0.05302395202751
 RMS of difference density:                            0.01934727016922
 Gap [au]:  0.64478286
 ALPHA OCC:  10
 BETA  OCC:  10
 
 ***HARTREE-FOCK ENERGY IN STEP   1 IS       -111.7186022422772282 [AU]
 ======================================================================
 ITERATION STEP   2
 CPU time [min]:     0.168                   Wall time [min]:     0.012
 

 SCF control                  : diis
 Damping factor/level shift   : 0.000/0.000
 DIIS [start/end/frequency]   :   2 /200 /  1

 Constructing Fock-matrix...
 
 Pipek-Mezey localization...
 Step  Convergence
   1   0.040806253003
   2   0.039919585987
   3   0.000012497483
   4   0.000000014518
   5   0.000000000057
 CPU time [min]:     0.192                   Wall time [min]:     0.012
 
 Constructing local fitting domains...
 Maximum number of atoms in fitting domains:    5
 Average number of atoms in fitting domains:    4.2
 
 First step of Coulomb + first step of exchange...
 Exchange contribution is evaluated for MOs 1 to 10.
   3% done.
  14% done.
  25% done.
  43% done.
  55% done.
  69% done.
  84% done.
 100% done.
 Fitting and assembly step of exchange...
 CPU time [min]:     0.270                   Wall time [min]:     0.014
 
 Second step of Coulomb...
   3% done.
  14% done.
  25% done.
  43% done.
  55% done.
  69% done.
  84% done.
 100% done.
 CPU time [min]:     0.286                   Wall time [min]:     0.014
 
 Gradient norm:      3.1688E-01
 DIIS is running in this iteration step.
 RMS of [F,P]:                                         0.01130099118441
 RMS of difference density:                            0.00884028946335
 Gap [au]:  0.52273514
 ALPHA OCC:  10
 BETA  OCC:  10
 
 ***HARTREE-FOCK ENERGY IN STEP   2 IS       -112.2461329828555989 [AU]
 
 Step comparison  Energy Drift [au]  DIIS error drift  Gradient drift
        1            5.2753E-01         4.1723E-02       2.0611E+00
        2            1.1225E+02         1.0000E-09       2.0611E+00
 ======================================================================
 ITERATION STEP   3
 CPU time [min]:     0.299                   Wall time [min]:     0.014
 

 SCF control                  : diis
 Damping factor/level shift   : 0.000/0.000
 DIIS [start/end/frequency]   :   2 /200 /  1

 Constructing Fock-matrix...
 
 Pipek-Mezey localization...
 Step  Convergence
   1   0.180921588336
   2   0.173125029050
   3   0.002217614598
   4   0.000000639657
   5   0.000000001064
 CPU time [min]:     0.322                   Wall time [min]:     0.015
 
 Constructing local fitting domains...
 Local fitting domains are unchanged.
 
 First step of Coulomb + first step of exchange...
 Exchange contribution is evaluated for MOs 1 to 10.
   3% done.
  14% done.
  25% done.
  43% done.
  55% done.
  69% done.
  84% done.
 100% done.
 Fitting and assembly step of exchange...
 CPU time [min]:     0.398                   Wall time [min]:     0.016
 
 Second step of Coulomb...
   3% done.
  14% done.
  25% done.
  43% done.
  55% done.
  69% done.
  84% done.
 100% done.
 CPU time [min]:     0.413                   Wall time [min]:     0.016
 
 Gradient norm:      1.1319E-01
 DIIS is running in this iteration step.
 RMS of [F,P]:                                         0.00537557893033
 RMS of difference density:                            0.00270136021282
 Gap [au]:  0.57250871
 ALPHA OCC:  10
 BETA  OCC:  10
 
 ***HARTREE-FOCK ENERGY IN STEP   3 IS       -112.2843840057781222 [AU]
 
 Step comparison  Energy Drift [au]  DIIS error drift  Gradient drift
        2            3.8251E-02         5.9254E-03       2.0369E-01
 ======================================================================
 ITERATION STEP   4
 CPU time [min]:     0.426                   Wall time [min]:     0.016
 

 SCF control                  : diis
 Damping factor/level shift   : 0.000/0.000
 DIIS [start/end/frequency]   :   2 /200 /  1

 Constructing Fock-matrix...
 
 Pipek-Mezey localization...
 Step  Convergence
   1   0.126919401970
   2   0.143371936674
   3   0.015221735609
   4   0.000001086842
   5   0.000000000286
 CPU time [min]:     0.450                   Wall time [min]:     0.017
 
 Constructing local fitting domains...
 Local fitting domains are unchanged.
 
 First step of Coulomb + first step of exchange...
 Exchange contribution is evaluated for MOs 1 to 10.
   3% done.
  14% done.
  25% done.
  43% done.
  55% done.
  69% done.
  84% done.
 100% done.
 Fitting and assembly step of exchange...
 CPU time [min]:     0.526                   Wall time [min]:     0.018
 
 Second step of Coulomb...
   3% done.
  14% done.
  25% done.
  43% done.
  55% done.
  69% done.
  84% done.
 100% done.
 CPU time [min]:     0.542                   Wall time [min]:     0.018
 
 Gradient norm:      2.3220E-02
 DIIS is running in this iteration step.
 RMS of [F,P]:                                         0.00067015814125
 RMS of difference density:                            0.00067391459567
 Gap [au]:  0.56465601
 ALPHA OCC:  10
 BETA  OCC:  10
 
 ***HARTREE-FOCK ENERGY IN STEP   4 IS       -112.2948184462449035 [AU]
 
 Step comparison  Energy Drift [au]  DIIS error drift  Gradient drift
        3            1.0434E-02         4.7054E-03       8.9974E-02
 ======================================================================
 ITERATION STEP   5
 CPU time [min]:     0.554                   Wall time [min]:     0.018
 

 SCF control                  : diis
 Damping factor/level shift   : 0.000/0.000
 DIIS [start/end/frequency]   :   2 /200 /  1

 Constructing Fock-matrix...
 
 Pipek-Mezey localization...
 Step  Convergence
   1   0.107501277735
   2   0.108720358746
   3   0.000122438409
   4   0.000000015121
   5   0.000000000024
 CPU time [min]:     0.577                   Wall time [min]:     0.019
 
 Constructing local fitting domains...
 Local fitting domains are unchanged.
 
 First step of Coulomb + first step of exchange...
 Exchange contribution is evaluated for MOs 1 to 10.
   3% done.
  14% done.
  25% done.
  43% done.
  55% done.
  69% done.
  84% done.
 100% done.
 Fitting and assembly step of exchange...
 CPU time [min]:     0.653                   Wall time [min]:     0.020
 
 Second step of Coulomb...
   3% done.
  14% done.
  25% done.
  43% done.
  55% done.
  69% done.
  84% done.
 100% done.
 CPU time [min]:     0.669                   Wall time [min]:     0.020
 
 Gradient norm:      1.8432E-03
 DIIS is running in this iteration step.
 RMS of [F,P]:                                         0.00011174027566
 RMS of difference density:                            0.00009385583421
 Gap [au]:  0.56504454
 ALPHA OCC:  10
 BETA  OCC:  10
 
 ***HARTREE-FOCK ENERGY IN STEP   5 IS       -112.2951399950315903 [AU]
 
 Step comparison  Energy Drift [au]  DIIS error drift  Gradient drift
        4            3.2155E-04         5.5842E-04       2.1377E-02
 ======================================================================
 ITERATION STEP   6
 CPU time [min]:     0.682                   Wall time [min]:     0.021
 

 SCF control                  : diis
 Damping factor/level shift   : 0.000/0.000
 DIIS [start/end/frequency]   :   2 /200 /  1

 Constructing Fock-matrix...
 
 Pipek-Mezey localization...
 Step  Convergence
   1   0.124320404930
   2   0.118776470295
   3   0.000124211627
   4   0.000000149563
   5   0.000000000166
 CPU time [min]:     0.706                   Wall time [min]:     0.021
 
 Constructing local fitting domains...
 Local fitting domains are unchanged.
 
 First step of Coulomb + first step of exchange...
 Exchange contribution is evaluated for MOs 1 to 10.
   3% done.
  14% done.
  25% done.
  43% done.
  55% done.
  69% done.
  84% done.
 100% done.
 Fitting and assembly step of exchange...
 CPU time [min]:     0.782                   Wall time [min]:     0.022
 
 Second step of Coulomb...
   3% done.
  14% done.
  25% done.
  43% done.
  55% done.
  69% done.
  84% done.
 100% done.
 CPU time [min]:     0.797                   Wall time [min]:     0.022
 
 Gradient norm:      3.4421E-04
 DIIS is running in this iteration step.
 RMS of [F,P]:                                         0.00001220347997
 RMS of difference density:                            0.00000926891687
 Gap [au]:  0.56497257
 ALPHA OCC:  10
 BETA  OCC:  10
 
 ***HARTREE-FOCK ENERGY IN STEP   6 IS       -112.2951468657112741 [AU]
 
 Step comparison  Energy Drift [au]  DIIS error drift  Gradient drift
        5            6.8707E-06         9.9537E-05       1.4990E-03
 ======================================================================
 ITERATION STEP   7
 CPU time [min]:     0.810                   Wall time [min]:     0.023
 

 SCF control                  : diis
 Damping factor/level shift   : 0.000/0.000
 DIIS [start/end/frequency]   :   2 /200 /  1

 Constructing Fock-matrix...
 
 Pipek-Mezey localization...
 Step  Convergence
   1   0.149618238031
   2   0.143018848623
   3   0.000159508965
   4   0.000000034100
   5   0.000000000015
   6   0.000000000000
 CPU time [min]:     0.834                   Wall time [min]:     0.023
 
 Constructing local fitting domains...
 Local fitting domains are unchanged.
 
 First step of Coulomb + first step of exchange...
 Exchange contribution is evaluated for MOs 1 to 10.
   3% done.
  14% done.
  25% done.
  43% done.
  55% done.
  69% done.
  84% done.
 100% done.
 Fitting and assembly step of exchange...
 CPU time [min]:     0.909                   Wall time [min]:     0.024
 
 Second step of Coulomb...
   3% done.
  14% done.
  25% done.
  43% done.
  55% done.
  69% done.
  84% done.
 100% done.
 CPU time [min]:     0.925                   Wall time [min]:     0.025
 
 Gradient norm:      1.2185E-04
 DIIS is running in this iteration step.
 RMS of [F,P]:                                         0.00000267716798
 RMS of difference density:                            0.00000224446143
 Gap [au]:  0.56499194
 ALPHA OCC:  10
 BETA  OCC:  10
 
 ***HARTREE-FOCK ENERGY IN STEP   7 IS       -112.2951468779526749 [AU]
 
 Step comparison  Energy Drift [au]  DIIS error drift  Gradient drift
        6            1.2241E-08         9.5263E-06       2.2236E-04
 ======================================================================
 ITERATION STEP   8
 CPU time [min]:     0.938                   Wall time [min]:     0.025
 

 SCF control                  : diis
 Damping factor/level shift   : 0.000/0.000
 DIIS [start/end/frequency]   :   2 /200 /  1

 Constructing Fock-matrix...
 
 Pipek-Mezey localization...
 Step  Convergence
   1   0.122680743682
   2   0.117516213242
   3   0.000082193789
   4   0.000000030023
   5   0.000000000046
   6   0.000000000000
 CPU time [min]:     0.962                   Wall time [min]:     0.025
 
 Constructing local fitting domains...
 Local fitting domains are unchanged.
 
 First step of Coulomb + first step of exchange...
 Exchange contribution is evaluated for MOs 1 to 10.
   3% done.
  14% done.
  25% done.
  43% done.
  55% done.
  69% done.
  84% done.
 100% done.
 Fitting and assembly step of exchange...
 CPU time [min]:     1.038                   Wall time [min]:     0.026
 
 Second step of Coulomb...
   3% done.
  14% done.
  25% done.
  43% done.
  55% done.
  69% done.
  84% done.
 100% done.
 CPU time [min]:     1.054                   Wall time [min]:     0.027
 
 Gradient norm:      4.4755E-05
 DIIS is running in this iteration step.
 RMS of [F,P]:                                         0.00000111482233
 RMS of difference density:                            0.00000105448193
 Gap [au]:  0.56497686
 ALPHA OCC:  10
 BETA  OCC:  10
 
 ***HARTREE-FOCK ENERGY IN STEP   8 IS       -112.2951468650083200 [AU]
 
 Step comparison  Energy Drift [au]  DIIS error drift  Gradient drift
        7           -1.2944E-08         1.5623E-06       7.7093E-05
 Warning! The energy goes uphill (with respect to previous step).
 ======================================================================
 ITERATION STEP   9
 CPU time [min]:     1.067                   Wall time [min]:     0.027
 

 SCF control                  : diis
 Damping factor/level shift   : 0.000/0.000
 DIIS [start/end/frequency]   :   2 /200 /  1

 Constructing Fock-matrix...
 
 Pipek-Mezey localization...
 Step  Convergence
   1   0.146147933624
   2   0.143477594240
   3   0.000182094452
   4   0.000000065541
   5   0.000000000088
   6   0.000000000001
 CPU time [min]:     1.091                   Wall time [min]:     0.027
 
 Constructing local fitting domains...
 Local fitting domains are unchanged.
 
 First step of Coulomb + first step of exchange...
 Exchange contribution is evaluated for MOs 1 to 10.
   3% done.
  14% done.
  25% done.
  43% done.
  55% done.
  69% done.
  84% done.
 100% done.
 Fitting and assembly step of exchange...
 CPU time [min]:     1.167                   Wall time [min]:     0.029
 
 Second step of Coulomb...
   3% done.
  14% done.
  25% done.
  43% done.
  55% done.
  69% done.
  84% done.
 100% done.
 CPU time [min]:     1.182                   Wall time [min]:     0.029
 
 Gradient norm:      5.6592E-06
 DIIS is running in this iteration step.
 RMS of [F,P]:                                         0.00000023454062
 RMS of difference density:                            0.00000047008791
 Gap [au]:  0.56497569
 ALPHA OCC:  10
 BETA  OCC:  10
 
 ***HARTREE-FOCK ENERGY IN STEP   9 IS       -112.2951468534991903 [AU]
 
 Step comparison  Energy Drift [au]  DIIS error drift  Gradient drift
        8           -1.1509E-08         8.8028E-07       3.9096E-05
 Warning! The energy goes uphill (with respect to previous step).
 ======================================================================
 ITERATION STEP  10
 CPU time [min]:     1.195                   Wall time [min]:     0.029
 

 SCF control                  : diis
 Damping factor/level shift   : 0.000/0.000
 DIIS [start/end/frequency]   :   2 /200 /  1

 Constructing Fock-matrix...
 
 Pipek-Mezey localization...
 Step  Convergence
   1   0.149737505044
   2   0.146013540538
   3   0.000176627623
   4   0.000000089384
   5   0.000000000132
   6   0.000000000000
 CPU time [min]:     1.219                   Wall time [min]:     0.030
 
 Constructing local fitting domains...
 Local fitting domains are unchanged.
 
 First step of Coulomb + first step of exchange...
 Exchange contribution is evaluated for MOs 1 to 10.
   3% done.
  14% done.
  25% done.
  43% done.
  55% done.
  69% done.
  84% done.
 100% done.
 Fitting and assembly step of exchange...
 CPU time [min]:     1.294                   Wall time [min]:     0.031
 
 Second step of Coulomb...
   3% done.
  14% done.
  25% done.
  43% done.
  55% done.
  69% done.
  84% done.
 100% done.
 CPU time [min]:     1.310                   Wall time [min]:     0.031
 
 Gradient norm:      1.7235E-06
 DIIS is running in this iteration step.
 RMS of [F,P]:                                         0.00000004910031
 RMS of difference density:                            0.00000013405240
 Gap [au]:  0.56497565
 ALPHA OCC:  10
 BETA  OCC:  10
 
 ***HARTREE-FOCK ENERGY IN STEP  10 IS       -112.2951468487765823 [AU]
 
 Step comparison  Energy Drift [au]  DIIS error drift  Gradient drift
        9           -4.7226E-09         1.8544E-07       3.9356E-06
 Warning! The energy goes uphill (with respect to previous step).
 ======================================================================
 ITERATION STEP  11
 CPU time [min]:     1.322                   Wall time [min]:     0.031
 

 SCF control                  : diis
 Damping factor/level shift   : 0.000/0.000
 DIIS [start/end/frequency]   :   2 /200 /  1

 Constructing Fock-matrix...
 
 Pipek-Mezey localization...
 Step  Convergence
   1   0.112670839442
   2   0.110933684873
   3   0.000075242233
   4   0.000000029077
   5   0.000000000081
   6   0.000000000000
 CPU time [min]:     1.346                   Wall time [min]:     0.032
 
 Constructing local fitting domains...
 Local fitting domains are unchanged.
 
 First step of Coulomb + first step of exchange...
 Exchange contribution is evaluated for MOs 1 to 10.
   3% done.
  14% done.
  25% done.
  43% done.
  55% done.
  69% done.
  84% done.
 100% done.
 Fitting and assembly step of exchange...
 CPU time [min]:     1.421                   Wall time [min]:     0.033
 
 Second step of Coulomb...
   3% done.
  14% done.
  25% done.
  43% done.
  55% done.
  69% done.
  84% done.
 100% done.
 CPU time [min]:     1.437                   Wall time [min]:     0.033
 
 Gradient norm:      4.2599E-07
 DIIS is running in this iteration step.
 RMS of [F,P]:                                         0.00000001284292
 RMS of difference density:                            0.00000003927003
 Gap [au]:  0.56497570
 ALPHA OCC:  10
 BETA  OCC:  10
 
 ***HARTREE-FOCK ENERGY IN STEP  11 IS       -112.2951468474944221 [AU]
 
 Step comparison  Energy Drift [au]  DIIS error drift  Gradient drift
       10           -1.2822E-09         3.6257E-08       1.2976E-06
 Warning! The energy goes uphill (with respect to previous step).
 ======================================================================
 ITERATION STEP  12
 CPU time [min]:     1.450                   Wall time [min]:     0.033
 

 SCF control                  : diis
 Damping factor/level shift   : 0.000/0.000
 DIIS [start/end/frequency]   :   2 /200 /  1

 Constructing Fock-matrix...
 
 Pipek-Mezey localization...
 Step  Convergence
   1   0.110611075937
   2   0.108738410218
   3   0.000049472812
   4   0.000000018699
   5   0.000000000049
   6   0.000000000000
 CPU time [min]:     1.474                   Wall time [min]:     0.034
 
 Constructing local fitting domains...
 Local fitting domains are unchanged.
 
 First step of Coulomb + first step of exchange...
 Exchange contribution is evaluated for MOs 1 to 10.
   3% done.
  14% done.
  25% done.
  43% done.
  55% done.
  69% done.
  84% done.
 100% done.
 Fitting and assembly step of exchange...
 CPU time [min]:     1.549                   Wall time [min]:     0.035
 
 Second step of Coulomb...
   3% done.
  14% done.
  25% done.
  43% done.
  55% done.
  69% done.
  84% done.
 100% done.
 CPU time [min]:     1.565                   Wall time [min]:     0.035
 
 Gradient norm:      6.1429E-08
 DIIS is running in this iteration step.
 RMS of [F,P]:                                         0.00000000200443
 RMS of difference density:                            0.00000000475857
 Gap [au]:  0.56497571
 ALPHA OCC:  10
 BETA  OCC:  10
 
 ***HARTREE-FOCK ENERGY IN STEP  12 IS       -112.2951468471609786 [AU]
 
 Step comparison  Energy Drift [au]  DIIS error drift  Gradient drift
       11           -3.3344E-10         1.0838E-08       3.6456E-07
 Warning! The energy goes uphill (with respect to previous step).
 ======================================================================
 ITERATION STEP  13
 CPU time [min]:     1.578                   Wall time [min]:     0.036
 

 SCF control                  : diis
 Damping factor/level shift   : 0.000/0.000
 DIIS [start/end/frequency]   :   2 /200 /  1

 Constructing Fock-matrix...
 
 Pipek-Mezey localization...
 Step  Convergence
   1   0.146806488298
   2   0.151624823539
   3   0.000263776463
   4   0.000000069611
   5   0.000000000045
   6   0.000000000000
 CPU time [min]:     1.601                   Wall time [min]:     0.036
 
 Constructing local fitting domains...
 Local fitting domains are unchanged.
 
 First step of Coulomb + first step of exchange...
 Exchange contribution is evaluated for MOs 1 to 10.
   3% done.
  14% done.
  25% done.
  43% done.
  55% done.
  69% done.
  84% done.
 100% done.
 Fitting and assembly step of exchange...
 CPU time [min]:     1.676                   Wall time [min]:     0.037
 
 Second step of Coulomb...
   3% done.
  14% done.
  25% done.
  43% done.
  55% done.
  69% done.
  84% done.
 100% done.
 CPU time [min]:     1.692                   Wall time [min]:     0.037
 
 Gradient norm:      6.3140E-09
 DIIS is running in this iteration step.
 RMS of [F,P]:                                         0.00000000024842
 RMS of difference density:                            0.00000000033623
 Gap [au]:  0.56497571
 ALPHA OCC:  10
 BETA  OCC:  10
 
 ***HARTREE-FOCK ENERGY IN STEP  13 IS       -112.2951468471536032 [AU]
 
 Step comparison  Energy Drift [au]  DIIS error drift  Gradient drift
       12           -7.3754E-12         1.7560E-09       5.5115E-08
 Warning! The energy goes uphill (with respect to previous step).
 
 The SCF iteration has converged.
 An extra iteration will be performed to calculate accurate SCF energy.
 
 ======================================================================
 ITERATION STEP  14
 CPU time [min]:     1.708                   Wall time [min]:     0.038
 

 SCF control                  : diis
 Damping factor/level shift   : 0.000/0.000
 DIIS [start/end/frequency]   :   2 /200 /  1

 Constructing Fock-matrix...
 
 Pipek-Mezey localization...
 Step  Convergence
   1   0.111534657089
   2   0.109858494857
   3   0.000038609236
   4   0.000000051700
   5   0.000000000020
   6   0.000000000000
 CPU time [min]:     1.732                   Wall time [min]:     0.038
 
 Constructing local fitting domains...
 Maximum number of atoms in fitting domains:    8
 Average number of atoms in fitting domains:    8.0
 
 First step of Coulomb + first step of exchange...
 Exchange contribution is evaluated for MOs 1 to 10.
   3% done.
  14% done.
  25% done.
  43% done.
  55% done.
  69% done.
  84% done.
 100% done.
 Fitting and assembly step of exchange...
 CPU time [min]:     1.826                   Wall time [min]:     0.040
 
 Second step of Coulomb...
   3% done.
  14% done.
  25% done.
  43% done.
  55% done.
  69% done.
  84% done.
 100% done.
 CPU time [min]:     1.842                   Wall time [min]:     0.040
 
 Gradient norm:      4.2579E-05
 RMS of [F,P]:                                         0.00000204913275
 RMS of difference density:                            0.00000152955434
 Gap [au]:  0.56496380
 ALPHA OCC:  10
 BETA  OCC:  10
 
 ***HARTREE-FOCK ENERGY IN STEP  14 IS       -112.2952598296762119 [AU]
 
 Step comparison  Energy Drift [au]  DIIS error drift  Gradient drift
       13            1.1298E-04        -2.0489E-06      -4.2572E-05
 Warning! The DIIS error goes uphill (with respect to previous step).
 Warning! The DIIS error goes uphill (with respect to step  13 ).
 Warning! The gradient goes uphill (with respect to previous step).
 Warning! The gradient goes uphill (with respect to step  13 ).
 ======================================================================
 
 SUCCESS...
 THE SCF ITERATION HAS CONVERGED!
 
                   A   
 FINAL ALPHA OCC:  10
 FINAL BETA  OCC:  10
 
 ***FINAL HARTREE-FOCK ENERGY:       -112.2952598296762119 [AU]
 
 Orbital energies [au]:
      Irrep         Alpha          Beta
    1   A        -15.546783     -15.546783
    2   A        -15.542799     -15.542799
    3   A         -1.119083      -1.119083
    4   A         -1.114343      -1.114343
    5   A         -0.626173      -0.626173
    6   A         -0.622616      -0.622616
    7   A         -0.618202      -0.618202
    8   A         -0.615810      -0.615810
    9   A         -0.426156      -0.426156
   10   A         -0.421372      -0.421372
 
   11   A          0.143592       0.143592
   12   A          0.204353       0.204353
   13   A          0.231142       0.231142
   14   A          0.259242       0.259242
   15   A          0.282087       0.282087
   16   A          0.355994       0.355994
   17   A          0.717249       0.717249
   18   A          0.729610       0.729610
   19   A          0.734628       0.734628
   20   A          0.741340       0.741340
   21   A          0.873629       0.873629
   22   A          0.906480       0.906480
   23   A          0.982916       0.982916
   24   A          1.005376       1.005376
   25   A          1.072329       1.072329
   26   A          1.090828       1.090828
   27   A          1.097727       1.097727
   28   A          1.122858       1.122858
   29   A          1.139126       1.139126
   30   A          1.180511       1.180511
   31   A          1.451764       1.451764
   32   A          1.455844       1.455844
   33   A          1.456878       1.456878
   34   A          1.468171       1.468171
   35   A          1.862486       1.862486
   36   A          1.864636       1.864636
   37   A          1.951903       1.951903
   38   A          1.968928       1.968928
   39   A          2.061825       2.061825
   40   A          2.066812       2.066812
   41   A          2.071242       2.071242
   42   A          2.078849       2.078849
   43   A          2.401846       2.401846
   44   A          2.412226       2.412226
   45   A          2.420613       2.420613
   46   A          2.427757       2.427757
   47   A          2.741701       2.741701
   48   A          2.746017       2.746017
   49   A          3.147836       3.147836
   50   A          3.148052       3.148052
   51   A          3.152483       3.152483
   52   A          3.157168       3.157168
   53   A          3.256622       3.256622
   54   A          3.259591       3.259591
   55   A          3.676738       3.676738
   56   A          3.686697       3.686697
   57   A          3.692285       3.692285
   58   A          3.717913       3.717913
 
 RETURNING FROM SCF ALGORITHM
 ======================================================================

 ************************ 2026-02-26 16:12:34 *************************
 Executing integ...

 Allocation of 46.0 Gbytes of memory...
 
 
 Number of atoms:                  8
 Charge:                           0
 Number of electrons:             20
 Number of core electrons:         4
 Spin multiplicity:                1
 
                 Cartesian coordinates [bohr]      Atomic mass [AMU]  Z
   1  N     1.97420664    1.97415541    1.97424640    14.003074       7
   2  H     3.51863349    2.63865391    1.00653002     1.007825       1
   3  H     2.63877653    1.00647336    3.51882825     1.007825       1
   4  H     1.00639751    3.51850532    2.63869260     1.007825       1
   5  N     6.82182577    2.87346447    7.72099687    14.003074       7
   6  H     8.36625160    2.20896759    8.68871146     1.007825       1
   7  H     7.48639849    3.84114800    6.17641118     1.007825       1
   8  H     5.85401804    1.32911599    7.05654762     1.007825       1
 
 This molecule is an asymmetric top.
 
 Point group: C1  
 Computational point group: C1  
 
 Cartesian coordinates in standard orientation [bohr]
   1  N    -3.83260555   -0.06174637   -0.04678606
   2  H    -3.48952263    1.61051280   -0.96826906
   3  H    -2.33174091   -1.23553303   -0.41205990
   4  H    -3.81321919    0.31785083    1.85549942
   5  N     3.73685591   -0.00521896    0.13587966
   6  H     5.40661285   -0.26975124   -0.81554726
   7  H     3.10212009    1.77431891   -0.30476611
   8  H     2.45612880   -1.26695857   -0.59275471
 
 Nuclear repulsion energy [au]:         37.120111737452
 
 
 Basis set information:
 
 Maximum angular momentum: g
 Maximum number of contracted Gaussians:   11
 Maximum number of primitive Gaussians:    14
 Spherical harmonic GTOs are used.
 
 
 Conventional basis set:
 
   1  N  aug-cc-pvtz [ 11s 6p 3d 2f | 5s 4p 3d 2f ]
   2  H  aug-cc-pvtz [ 6s 3p 2d | 4s 3p 2d ]
   3  H  aug-cc-pvtz [ 6s 3p 2d | 4s 3p 2d ]
   4  H  aug-cc-pvtz [ 6s 3p 2d | 4s 3p 2d ]
   5  N  aug-cc-pvtz [ 11s 6p 3d 2f | 5s 4p 3d 2f ]
   6  H  aug-cc-pvtz [ 6s 3p 2d | 4s 3p 2d ]
   7  H  aug-cc-pvtz [ 6s 3p 2d | 4s 3p 2d ]
   8  H  aug-cc-pvtz [ 6s 3p 2d | 4s 3p 2d ]
 
 Basis functions:
            1             2             3             4             5             6             7             8             9            10
    0    1N1s          1N2s          1N3s          1N4s          1N5s          1N1pz         1N1py         1N1px         1N2pz         1N2py     
    1    1N2px         1N3pz         1N3py         1N3px         1N4pz         1N4py         1N4px         1N1d-2        1N1d-1        1N1d0     
    2    1N1d+1        1N1d+2        1N2d-2        1N2d-1        1N2d0         1N2d+1        1N2d+2        1N3d-2        1N3d-1        1N3d0     
    3    1N3d+1        1N3d+2        1N1f-3        1N1f-2        1N1f-1        1N1f0         1N1f+1        1N1f+2        1N1f+3        1N2f-3    
    4    1N2f-2        1N2f-1        1N2f0         1N2f+1        1N2f+2        1N2f+3        2H1s          2H2s          2H3s          2H4s      
    5    2H1pz         2H1py         2H1px         2H2pz         2H2py         2H2px         2H3pz         2H3py         2H3px         2H1d-2    
    6    2H1d-1        2H1d0         2H1d+1        2H1d+2        2H2d-2        2H2d-1        2H2d0         2H2d+1        2H2d+2        3H1s      
    7    3H2s          3H3s          3H4s          3H1pz         3H1py         3H1px         3H2pz         3H2py         3H2px         3H3pz     
    8    3H3py         3H3px         3H1d-2        3H1d-1        3H1d0         3H1d+1        3H1d+2        3H2d-2        3H2d-1        3H2d0     
    9    3H2d+1        3H2d+2        4H1s          4H2s          4H3s          4H4s          4H1pz         4H1py         4H1px         4H2pz     
   10    4H2py         4H2px         4H3pz         4H3py         4H3px         4H1d-2        4H1d-1        4H1d0         4H1d+1        4H1d+2    
   11    4H2d-2        4H2d-1        4H2d0         4H2d+1        4H2d+2        5N1s          5N2s          5N3s          5N4s          5N5s      
   12    5N1pz         5N1py         5N1px         5N2pz         5N2py         5N2px         5N3pz         5N3py         5N3px         5N4pz     
   13    5N4py         5N4px         5N1d-2        5N1d-1        5N1d0         5N1d+1        5N1d+2        5N2d-2        5N2d-1        5N2d0     
   14    5N2d+1        5N2d+2        5N3d-2        5N3d-1        5N3d0         5N3d+1        5N3d+2        5N1f-3        5N1f-2        5N1f-1    
   15    5N1f0         5N1f+1        5N1f+2        5N1f+3        5N2f-3        5N2f-2        5N2f-1        5N2f0         5N2f+1        5N2f+2    
   16    5N2f+3        6H1s          6H2s          6H3s          6H4s          6H1pz         6H1py         6H1px         6H2pz         6H2py     
   17    6H2px         6H3pz         6H3py         6H3px         6H1d-2        6H1d-1        6H1d0         6H1d+1        6H1d+2        6H2d-2    
   18    6H2d-1        6H2d0         6H2d+1        6H2d+2        7H1s          7H2s          7H3s          7H4s          7H1pz         7H1py     
   19    7H1px         7H2pz         7H2py         7H2px         7H3pz         7H3py         7H3px         7H1d-2        7H1d-1        7H1d0     
   20    7H1d+1        7H1d+2        7H2d-2        7H2d-1        7H2d0         7H2d+1        7H2d+2        8H1s          8H2s          8H3s      
   21    8H4s          8H1pz         8H1py         8H1px         8H2pz         8H2py         8H2px         8H3pz         8H3py         8H3px     
   22    8H1d-2        8H1d-1        8H1d0         8H1d+1        8H1d+2        8H2d-2        8H2d-1        8H2d0         8H2d+1        8H2d+2    
 
 Maximum number of basis functions per shell:   15
 Total number of basis functions:    230
 
 
 Fitting basis set for the SCF calculation:
 
   1  N  aug-cc-pvtz-ri-jk [ 11s 8p 6d 3f 2g | 11s 8p 6d 3f 2g ]
   2  H  aug-cc-pvtz-ri-jk [ 5s 4p 3d 2f | 5s 4p 3d 2f ]
   3  H  aug-cc-pvtz-ri-jk [ 5s 4p 3d 2f | 5s 4p 3d 2f ]
   4  H  aug-cc-pvtz-ri-jk [ 5s 4p 3d 2f | 5s 4p 3d 2f ]
   5  N  aug-cc-pvtz-ri-jk [ 11s 8p 6d 3f 2g | 11s 8p 6d 3f 2g ]
   6  H  aug-cc-pvtz-ri-jk [ 5s 4p 3d 2f | 5s 4p 3d 2f ]
   7  H  aug-cc-pvtz-ri-jk [ 5s 4p 3d 2f | 5s 4p 3d 2f ]
   8  H  aug-cc-pvtz-ri-jk [ 5s 4p 3d 2f | 5s 4p 3d 2f ]
 
 Basis functions:
            1             2             3             4             5             6             7             8             9            10
    0    1N1s          1N2s          1N3s          1N4s          1N5s          1N6s          1N7s          1N8s          1N9s          1N10s     
    1    1N11s         1N1pz         1N1py         1N1px         1N2pz         1N2py         1N2px         1N3pz         1N3py         1N3px     
    2    1N4pz         1N4py         1N4px         1N5pz         1N5py         1N5px         1N6pz         1N6py         1N6px         1N7pz     
    3    1N7py         1N7px         1N8pz         1N8py         1N8px         1N1d-2        1N1d-1        1N1d0         1N1d+1        1N1d+2    
    4    1N2d-2        1N2d-1        1N2d0         1N2d+1        1N2d+2        1N3d-2        1N3d-1        1N3d0         1N3d+1        1N3d+2    
    5    1N4d-2        1N4d-1        1N4d0         1N4d+1        1N4d+2        1N5d-2        1N5d-1        1N5d0         1N5d+1        1N5d+2    
    6    1N6d-2        1N6d-1        1N6d0         1N6d+1        1N6d+2        1N1f-3        1N1f-2        1N1f-1        1N1f0         1N1f+1    
    7    1N1f+2        1N1f+3        1N2f-3        1N2f-2        1N2f-1        1N2f0         1N2f+1        1N2f+2        1N2f+3        1N3f-3    
    8    1N3f-2        1N3f-1        1N3f0         1N3f+1        1N3f+2        1N3f+3        1N1g-4        1N1g-3        1N1g-2        1N1g-1    
    9    1N1g0         1N1g+1        1N1g+2        1N1g+3        1N1g+4        1N2g-4        1N2g-3        1N2g-2        1N2g-1        1N2g0     
   10    1N2g+1        1N2g+2        1N2g+3        1N2g+4        2H1s          2H2s          2H3s          2H4s          2H5s          2H1pz     
   11    2H1py         2H1px         2H2pz         2H2py         2H2px         2H3pz         2H3py         2H3px         2H4pz         2H4py     
   12    2H4px         2H1d-2        2H1d-1        2H1d0         2H1d+1        2H1d+2        2H2d-2        2H2d-1        2H2d0         2H2d+1    
   13    2H2d+2        2H3d-2        2H3d-1        2H3d0         2H3d+1        2H3d+2        2H1f-3        2H1f-2        2H1f-1        2H1f0     
   14    2H1f+1        2H1f+2        2H1f+3        2H2f-3        2H2f-2        2H2f-1        2H2f0         2H2f+1        2H2f+2        2H2f+3    
   15    3H1s          3H2s          3H3s          3H4s          3H5s          3H1pz         3H1py         3H1px         3H2pz         3H2py     
   16    3H2px         3H3pz         3H3py         3H3px         3H4pz         3H4py         3H4px         3H1d-2        3H1d-1        3H1d0     
   17    3H1d+1        3H1d+2        3H2d-2        3H2d-1        3H2d0         3H2d+1        3H2d+2        3H3d-2        3H3d-1        3H3d0     
   18    3H3d+1        3H3d+2        3H1f-3        3H1f-2        3H1f-1        3H1f0         3H1f+1        3H1f+2        3H1f+3        3H2f-3    
   19    3H2f-2        3H2f-1        3H2f0         3H2f+1        3H2f+2        3H2f+3        4H1s          4H2s          4H3s          4H4s      
   20    4H5s          4H1pz         4H1py         4H1px         4H2pz         4H2py         4H2px         4H3pz         4H3py         4H3px     
   21    4H4pz         4H4py         4H4px         4H1d-2        4H1d-1        4H1d0         4H1d+1        4H1d+2        4H2d-2        4H2d-1    
   22    4H2d0         4H2d+1        4H2d+2        4H3d-2        4H3d-1        4H3d0         4H3d+1        4H3d+2        4H1f-3        4H1f-2    
   23    4H1f-1        4H1f0         4H1f+1        4H1f+2        4H1f+3        4H2f-3        4H2f-2        4H2f-1        4H2f0         4H2f+1    
   24    4H2f+2        4H2f+3        5N1s          5N2s          5N3s          5N4s          5N5s          5N6s          5N7s          5N8s      
   25    5N9s          5N10s         5N11s         5N1pz         5N1py         5N1px         5N2pz         5N2py         5N2px         5N3pz     
   26    5N3py         5N3px         5N4pz         5N4py         5N4px         5N5pz         5N5py         5N5px         5N6pz         5N6py     
   27    5N6px         5N7pz         5N7py         5N7px         5N8pz         5N8py         5N8px         5N1d-2        5N1d-1        5N1d0     
   28    5N1d+1        5N1d+2        5N2d-2        5N2d-1        5N2d0         5N2d+1        5N2d+2        5N3d-2        5N3d-1        5N3d0     
   29    5N3d+1        5N3d+2        5N4d-2        5N4d-1        5N4d0         5N4d+1        5N4d+2        5N5d-2        5N5d-1        5N5d0     
   30    5N5d+1        5N5d+2        5N6d-2        5N6d-1        5N6d0         5N6d+1        5N6d+2        5N1f-3        5N1f-2        5N1f-1    
   31    5N1f0         5N1f+1        5N1f+2        5N1f+3        5N2f-3        5N2f-2        5N2f-1        5N2f0         5N2f+1        5N2f+2    
   32    5N2f+3        5N3f-3        5N3f-2        5N3f-1        5N3f0         5N3f+1        5N3f+2        5N3f+3        5N1g-4        5N1g-3    
   33    5N1g-2        5N1g-1        5N1g0         5N1g+1        5N1g+2        5N1g+3        5N1g+4        5N2g-4        5N2g-3        5N2g-2    
   34    5N2g-1        5N2g0         5N2g+1        5N2g+2        5N2g+3        5N2g+4        6H1s          6H2s          6H3s          6H4s      
   35    6H5s          6H1pz         6H1py         6H1px         6H2pz         6H2py         6H2px         6H3pz         6H3py         6H3px     
   36    6H4pz         6H4py         6H4px         6H1d-2        6H1d-1        6H1d0         6H1d+1        6H1d+2        6H2d-2        6H2d-1    
   37    6H2d0         6H2d+1        6H2d+2        6H3d-2        6H3d-1        6H3d0         6H3d+1        6H3d+2        6H1f-3        6H1f-2    
   38    6H1f-1        6H1f0         6H1f+1        6H1f+2        6H1f+3        6H2f-3        6H2f-2        6H2f-1        6H2f0         6H2f+1    
   39    6H2f+2        6H2f+3        7H1s          7H2s          7H3s          7H4s          7H5s          7H1pz         7H1py         7H1px     
   40    7H2pz         7H2py         7H2px         7H3pz         7H3py         7H3px         7H4pz         7H4py         7H4px         7H1d-2    
   41    7H1d-1        7H1d0         7H1d+1        7H1d+2        7H2d-2        7H2d-1        7H2d0         7H2d+1        7H2d+2        7H3d-2    
   42    7H3d-1        7H3d0         7H3d+1        7H3d+2        7H1f-3        7H1f-2        7H1f-1        7H1f0         7H1f+1        7H1f+2    
   43    7H1f+3        7H2f-3        7H2f-2        7H2f-1        7H2f0         7H2f+1        7H2f+2        7H2f+3        8H1s          8H2s      
   44    8H3s          8H4s          8H5s          8H1pz         8H1py         8H1px         8H2pz         8H2py         8H2px         8H3pz     
   45    8H3py         8H3px         8H4pz         8H4py         8H4px         8H1d-2        8H1d-1        8H1d0         8H1d+1        8H1d+2    
   46    8H2d-2        8H2d-1        8H2d0         8H2d+1        8H2d+2        8H3d-2        8H3d-1        8H3d0         8H3d+1        8H3d+2    
   47    8H1f-3        8H1f-2        8H1f-1        8H1f0         8H1f+1        8H1f+2        8H1f+3        8H2f-3        8H2f-2        8H2f-1    
   48    8H2f0         8H2f+1        8H2f+2        8H2f+3    
 
 Maximum number of basis functions per shell:   30
 Total number of basis functions:    484
 
 
 Fitting basis set for the correlation calculation:
 
   1  N  aug-cc-pvtz-ri [ 9s 7p 6d 4f 2g | 9s 7p 6d 4f 2g ]
   2  H  aug-cc-pvtz-ri [ 5s 4p 3d 2f | 5s 4p 3d 2f ]
   3  H  aug-cc-pvtz-ri [ 5s 4p 3d 2f | 5s 4p 3d 2f ]
   4  H  aug-cc-pvtz-ri [ 5s 4p 3d 2f | 5s 4p 3d 2f ]
   5  N  aug-cc-pvtz-ri [ 9s 7p 6d 4f 2g | 9s 7p 6d 4f 2g ]
   6  H  aug-cc-pvtz-ri [ 5s 4p 3d 2f | 5s 4p 3d 2f ]
   7  H  aug-cc-pvtz-ri [ 5s 4p 3d 2f | 5s 4p 3d 2f ]
   8  H  aug-cc-pvtz-ri [ 5s 4p 3d 2f | 5s 4p 3d 2f ]
 
 Basis functions:
            1             2             3             4             5             6             7             8             9            10
    0    1N1s          1N2s          1N3s          1N4s          1N5s          1N6s          1N7s          1N8s          1N9s          1N1pz     
    1    1N1py         1N1px         1N2pz         1N2py         1N2px         1N3pz         1N3py         1N3px         1N4pz         1N4py     
    2    1N4px         1N5pz         1N5py         1N5px         1N6pz         1N6py         1N6px         1N7pz         1N7py         1N7px     
    3    1N1d-2        1N1d-1        1N1d0         1N1d+1        1N1d+2        1N2d-2        1N2d-1        1N2d0         1N2d+1        1N2d+2    
    4    1N3d-2        1N3d-1        1N3d0         1N3d+1        1N3d+2        1N4d-2        1N4d-1        1N4d0         1N4d+1        1N4d+2    
    5    1N5d-2        1N5d-1        1N5d0         1N5d+1        1N5d+2        1N6d-2        1N6d-1        1N6d0         1N6d+1        1N6d+2    
    6    1N1f-3        1N1f-2        1N1f-1        1N1f0         1N1f+1        1N1f+2        1N1f+3        1N2f-3        1N2f-2        1N2f-1    
    7    1N2f0         1N2f+1        1N2f+2        1N2f+3        1N3f-3        1N3f-2        1N3f-1        1N3f0         1N3f+1        1N3f+2    
    8    1N3f+3        1N4f-3        1N4f-2        1N4f-1        1N4f0         1N4f+1        1N4f+2        1N4f+3        1N1g-4        1N1g-3    
    9    1N1g-2        1N1g-1        1N1g0         1N1g+1        1N1g+2        1N1g+3        1N1g+4        1N2g-4        1N2g-3        1N2g-2    
   10    1N2g-1        1N2g0         1N2g+1        1N2g+2        1N2g+3        1N2g+4        2H1s          2H2s          2H3s          2H4s      
   11    2H5s          2H1pz         2H1py         2H1px         2H2pz         2H2py         2H2px         2H3pz         2H3py         2H3px     
   12    2H4pz         2H4py         2H4px         2H1d-2        2H1d-1        2H1d0         2H1d+1        2H1d+2        2H2d-2        2H2d-1    
   13    2H2d0         2H2d+1        2H2d+2        2H3d-2        2H3d-1        2H3d0         2H3d+1        2H3d+2        2H1f-3        2H1f-2    
   14    2H1f-1        2H1f0         2H1f+1        2H1f+2        2H1f+3        2H2f-3        2H2f-2        2H2f-1        2H2f0         2H2f+1    
   15    2H2f+2        2H2f+3        3H1s          3H2s          3H3s          3H4s          3H5s          3H1pz         3H1py         3H1px     
   16    3H2pz         3H2py         3H2px         3H3pz         3H3py         3H3px         3H4pz         3H4py         3H4px         3H1d-2    
   17    3H1d-1        3H1d0         3H1d+1        3H1d+2        3H2d-2        3H2d-1        3H2d0         3H2d+1        3H2d+2        3H3d-2    
   18    3H3d-1        3H3d0         3H3d+1        3H3d+2        3H1f-3        3H1f-2        3H1f-1        3H1f0         3H1f+1        3H1f+2    
   19    3H1f+3        3H2f-3        3H2f-2        3H2f-1        3H2f0         3H2f+1        3H2f+2        3H2f+3        4H1s          4H2s      
   20    4H3s          4H4s          4H5s          4H1pz         4H1py         4H1px         4H2pz         4H2py         4H2px         4H3pz     
   21    4H3py         4H3px         4H4pz         4H4py         4H4px         4H1d-2        4H1d-1        4H1d0         4H1d+1        4H1d+2    
   22    4H2d-2        4H2d-1        4H2d0         4H2d+1        4H2d+2        4H3d-2        4H3d-1        4H3d0         4H3d+1        4H3d+2    
   23    4H1f-3        4H1f-2        4H1f-1        4H1f0         4H1f+1        4H1f+2        4H1f+3        4H2f-3        4H2f-2        4H2f-1    
   24    4H2f0         4H2f+1        4H2f+2        4H2f+3        5N1s          5N2s          5N3s          5N4s          5N5s          5N6s      
   25    5N7s          5N8s          5N9s          5N1pz         5N1py         5N1px         5N2pz         5N2py         5N2px         5N3pz     
   26    5N3py         5N3px         5N4pz         5N4py         5N4px         5N5pz         5N5py         5N5px         5N6pz         5N6py     
   27    5N6px         5N7pz         5N7py         5N7px         5N1d-2        5N1d-1        5N1d0         5N1d+1        5N1d+2        5N2d-2    
   28    5N2d-1        5N2d0         5N2d+1        5N2d+2        5N3d-2        5N3d-1        5N3d0         5N3d+1        5N3d+2        5N4d-2    
   29    5N4d-1        5N4d0         5N4d+1        5N4d+2        5N5d-2        5N5d-1        5N5d0         5N5d+1        5N5d+2        5N6d-2    
   30    5N6d-1        5N6d0         5N6d+1        5N6d+2        5N1f-3        5N1f-2        5N1f-1        5N1f0         5N1f+1        5N1f+2    
   31    5N1f+3        5N2f-3        5N2f-2        5N2f-1        5N2f0         5N2f+1        5N2f+2        5N2f+3        5N3f-3        5N3f-2    
   32    5N3f-1        5N3f0         5N3f+1        5N3f+2        5N3f+3        5N4f-3        5N4f-2        5N4f-1        5N4f0         5N4f+1    
   33    5N4f+2        5N4f+3        5N1g-4        5N1g-3        5N1g-2        5N1g-1        5N1g0         5N1g+1        5N1g+2        5N1g+3    
   34    5N1g+4        5N2g-4        5N2g-3        5N2g-2        5N2g-1        5N2g0         5N2g+1        5N2g+2        5N2g+3        5N2g+4    
   35    6H1s          6H2s          6H3s          6H4s          6H5s          6H1pz         6H1py         6H1px         6H2pz         6H2py     
   36    6H2px         6H3pz         6H3py         6H3px         6H4pz         6H4py         6H4px         6H1d-2        6H1d-1        6H1d0     
   37    6H1d+1        6H1d+2        6H2d-2        6H2d-1        6H2d0         6H2d+1        6H2d+2        6H3d-2        6H3d-1        6H3d0     
   38    6H3d+1        6H3d+2        6H1f-3        6H1f-2        6H1f-1        6H1f0         6H1f+1        6H1f+2        6H1f+3        6H2f-3    
   39    6H2f-2        6H2f-1        6H2f0         6H2f+1        6H2f+2        6H2f+3        7H1s          7H2s          7H3s          7H4s      
   40    7H5s          7H1pz         7H1py         7H1px         7H2pz         7H2py         7H2px         7H3pz         7H3py         7H3px     
   41    7H4pz         7H4py         7H4px         7H1d-2        7H1d-1        7H1d0         7H1d+1        7H1d+2        7H2d-2        7H2d-1    
   42    7H2d0         7H2d+1        7H2d+2        7H3d-2        7H3d-1        7H3d0         7H3d+1        7H3d+2        7H1f-3        7H1f-2    
   43    7H1f-1        7H1f0         7H1f+1        7H1f+2        7H1f+3        7H2f-3        7H2f-2        7H2f-1        7H2f0         7H2f+1    
   44    7H2f+2        7H2f+3        8H1s          8H2s          8H3s          8H4s          8H5s          8H1pz         8H1py         8H1px     
   45    8H2pz         8H2py         8H2px         8H3pz         8H3py         8H3px         8H4pz         8H4py         8H4px         8H1d-2    
   46    8H1d-1        8H1d0         8H1d+1        8H1d+2        8H2d-2        8H2d-1        8H2d0         8H2d+1        8H2d+2        8H3d-2    
   47    8H3d-1        8H3d0         8H3d+1        8H3d+2        8H1f-3        8H1f-2        8H1f-1        8H1f0         8H1f+1        8H1f+2    
   48    8H1f+3        8H2f-3        8H2f-2        8H2f-1        8H2f0         8H2f+1        8H2f+2        8H2f+3    
 
 Maximum number of basis functions per shell:   30
 Total number of basis functions:    488
 
 
 Old basis set for SCF restart
 
   1  N  def2-svp [ 7s 4p 1d | 3s 2p 1d ]
   2  H  def2-svp [ 4s 1p | 2s 1p ]
   3  H  def2-svp [ 4s 1p | 2s 1p ]
   4  H  def2-svp [ 4s 1p | 2s 1p ]
   5  N  def2-svp [ 7s 4p 1d | 3s 2p 1d ]
   6  H  def2-svp [ 4s 1p | 2s 1p ]
   7  H  def2-svp [ 4s 1p | 2s 1p ]
   8  H  def2-svp [ 4s 1p | 2s 1p ]
 
 Basis functions:
            1             2             3             4             5             6             7             8             9            10
    0    1N1s          1N2s          1N3s          1N1pz         1N1py         1N1px         1N2pz         1N2py         1N2px         1N1d-2    
    1    1N1d-1        1N1d0         1N1d+1        1N1d+2        2H1s          2H2s          2H1pz         2H1py         2H1px         3H1s      
    2    3H2s          3H1pz         3H1py         3H1px         4H1s          4H2s          4H1pz         4H1py         4H1px         5N1s      
    3    5N2s          5N3s          5N1pz         5N1py         5N1px         5N2pz         5N2py         5N2px         5N1d-2        5N1d-1    
    4    5N1d0         5N1d+1        5N1d+2        6H1s          6H2s          6H1pz         6H1py         6H1px         7H1s          7H2s      
    5    7H1pz         7H1py         7H1px         8H1s          8H2s          8H1pz         8H1py         8H1px     
 
 Maximum number of basis functions per shell:   30
 Total number of basis functions:     58
 
 
 Character table for point group C1:
 
          E  
    A     1
 
 Number of basis functions per irrep:
    A     230
 
 
 Calculation of overlap integrals...
 CPU time [min]:     0.163                   Wall time [min]:     0.005
 
 Calculation of the square root of the overlap matrix...
 Minimum eigenvalue of the overlap matrix: 0.174107E-03
 CPU time [min]:     0.186                   Wall time [min]:     0.006
 
 Calculation of kinetic energy integrals...
 CPU time [min]:     0.188                   Wall time [min]:     0.006
 Calculation of dipole moment integrals...
 CPU time [min]:     0.190                   Wall time [min]:     0.006
 Calculation of nuclear attraction integrals...
 CPU time [min]:     0.192                   Wall time [min]:     0.006
 Calculation of overlap integrals...
 CPU time [min]:     0.194                   Wall time [min]:     0.006
 
 Calculation of prescreening integrals...
 CPU time [min]:     0.350                   Wall time [min]:     0.008
 
 Calculation of two-center Coulomb integrals...
   1% done.
  12% done.
  25% done.
  40% done.
  51% done.
  66% done.
  77% done.
  88% done.
 100% done.
 CPU time [min]:     0.362                   Wall time [min]:     0.009
 
 Cholesky decomposition of the two-center matrix...
 Reciprocal of the condition number:  0.336011E-04
 CPU time [min]:     0.375                   Wall time [min]:     0.009
 

 ************************ 2026-02-26 16:12:35 *************************
 Executing scf...

 @scfsetup: integrals calculated directly
            mrcc/integ direct run
 @scfsetup: calculating on full matrices
            not using symmetry adapted basis
 @scfsetup: diis switched on
 @scfsetup: number of steps to extrapolate from  10
 @scfsetup: tolerance in energy deviation    0.100000E-07
            tolerance in density deviation    0.100000E-08
 @scfsetup: maximum number of iterations: 200
 @scfsetup: restricted closed shell hf calc
 @scfsetup: restarting scf from SCFDENSITIES file
 @scfsetup: occupation set:
            from initial orbitals
 @scfsetup: Parameter-set for SCF acceleration: normal
 @scfsetup: diis runs from iteration:   2
 @scfsetup: diis runs to iteration: 200
 @scfsetup: diis runs in every iteration
 @scfsetup: diiswatch is disabled                   
 @scfsetup: diis dtol criteria to switch on:      0.0000E+00
           (or the iteration number below is reached)
 @scfsetup: static damping scheme
            iteration step criteria to turn damping off: 3
 @scfsetup: dynamic level shifting
            tolarance in HOMO-LUMO gap:  0.200
            tolarance in density deviation:     0.0000E+00
            iteration step criteria to turn level shifting off: 8
 Allocation of 46.0 Gbytes of memory...
 ======================================================================
 ITERATION STEP   1
 CPU time [min]:     0.050                   Wall time [min]:     0.010
 

 SCF control                  : initial
 Damping factor/level shift   : 0.000/0.200
 DIIS [start/end/frequency]   :   2 /200 /  1

 Constructing Fock-matrix...
 Inverse square root: The matrix is not positive definite!
 
 Pipek-Mezey localization...
 Step  Convergence
   1   2.134827278999
   2   0.837349875820
   3   0.640762100751
   4   0.109401563333
   5   0.004846144002
   6   0.000261385300
   7   0.000013097682
   8   0.000000786100
   9   0.000000052814
  10   0.000000003583
 CPU time [min]:     0.079                   Wall time [min]:     0.011
 
 Constructing local fitting domains...
 Maximum number of atoms in fitting domains:    8
 Average number of atoms in fitting domains:    8.0
 
 First step of Coulomb + first step of exchange...
 Exchange contribution is evaluated for MOs 1 to 10.
   1% done.
  13% done.
  25% done.
  41% done.
  52% done.
  64% done.
  81% done.
  92% done.
 100% done.
 Fitting and assembly step of exchange...
 CPU time [min]:     0.270                   Wall time [min]:     0.014
 
 Second step of Coulomb...
   1% done.
  13% done.
  25% done.
  41% done.
  52% done.
  64% done.
  81% done.
  92% done.
 100% done.
 CPU time [min]:     0.312                   Wall time [min]:     0.015
 
 Gradient norm:      4.4915E-01
 RMS of [F,P]:                                         0.00487982487023
 RMS of difference density:                            0.00898542993695
 Gap [au]:  0.45244765
 ALPHA OCC:  10
 BETA  OCC:  10
 
 ***HARTREE-FOCK ENERGY IN STEP   1 IS       -112.3930652954054210 [AU]
 ======================================================================
 ITERATION STEP   2
 CPU time [min]:     0.340                   Wall time [min]:     0.015
 

 SCF control                  : diis
 Damping factor/level shift   : 0.000/0.000
 DIIS [start/end/frequency]   :   2 /200 /  1

 Constructing Fock-matrix...
 
 Pipek-Mezey localization...
 Step  Convergence
   1   0.061552083383
   2   0.063239991223
   3   0.000289188298
   4   0.000001394222
   5   0.000000076046
   6   0.000000003082
 CPU time [min]:     0.363                   Wall time [min]:     0.016
 
 Constructing local fitting domains...
 Maximum number of atoms in fitting domains:    8
 Average number of atoms in fitting domains:    8.0
 
 First step of Coulomb + first step of exchange...
 Exchange contribution is evaluated for MOs 1 to 10.
   1% done.
  13% done.
  25% done.
  41% done.
  52% done.
  64% done.
  81% done.
  92% done.
 100% done.
 Fitting and assembly step of exchange...
 CPU time [min]:     0.938                   Wall time [min]:     0.025
 
 Second step of Coulomb...
   1% done.
  13% done.
  25% done.
  41% done.
  52% done.
  64% done.
  81% done.
  92% done.
 100% done.
 CPU time [min]:     0.979                   Wall time [min]:     0.025
 
 Gradient norm:      2.9851E-02
 DIIS is running in this iteration step.
 RMS of [F,P]:                                         0.00036900101262
 RMS of difference density:                            0.00098088280643
 Gap [au]:  0.45443353
 ALPHA OCC:  10
 BETA  OCC:  10
 
 ***HARTREE-FOCK ENERGY IN STEP   2 IS       -112.4348899447480079 [AU]
 
 Step comparison  Energy Drift [au]  DIIS error drift  Gradient drift
        1            4.1825E-02         4.5108E-03       4.1930E-01
        2            1.1243E+02         1.0000E-09       4.1930E-01
 ======================================================================
 ITERATION STEP   3
 CPU time [min]:     1.006                   Wall time [min]:     0.026
 

 SCF control                  : diis
 Damping factor/level shift   : 0.000/0.000
 DIIS [start/end/frequency]   :   2 /200 /  1

 Constructing Fock-matrix...
 
 Pipek-Mezey localization...
 Step  Convergence
   1   0.081293234717
   2   0.083811174579
   3   0.000319037094
   4   0.000003561524
   5   0.000000335701
   6   0.000000033476
   7   0.000000003372
 CPU time [min]:     1.030                   Wall time [min]:     0.026
 
 Constructing local fitting domains...
 Local fitting domains are unchanged.
 
 First step of Coulomb + first step of exchange...
 Exchange contribution is evaluated for MOs 1 to 10.
   1% done.
  13% done.
  25% done.
  41% done.
  52% done.
  64% done.
  81% done.
  92% done.
 100% done.
 Fitting and assembly step of exchange...
 CPU time [min]:     1.215                   Wall time [min]:     0.029
 
 Second step of Coulomb...
   1% done.
  13% done.
  25% done.
  41% done.
  52% done.
  64% done.
  81% done.
  92% done.
 100% done.
 CPU time [min]:     1.257                   Wall time [min]:     0.030
 
 Gradient norm:      9.9545E-03
 DIIS is running in this iteration step.
 RMS of [F,P]:                                         0.00011419679008
 RMS of difference density:                            0.00027263253737
 Gap [au]:  0.45660379
 ALPHA OCC:  10
 BETA  OCC:  10
 
 ***HARTREE-FOCK ENERGY IN STEP   3 IS       -112.4366365031000043 [AU]
 
 Step comparison  Energy Drift [au]  DIIS error drift  Gradient drift
        2            1.7466E-03         2.5480E-04       1.9896E-02
 ======================================================================
 ITERATION STEP   4
 CPU time [min]:     1.283                   Wall time [min]:     0.030
 

 SCF control                  : diis
 Damping factor/level shift   : 0.000/0.000
 DIIS [start/end/frequency]   :   2 /200 /  1

 Constructing Fock-matrix...
 
 Pipek-Mezey localization...
 Step  Convergence
   1   0.080564326780
   2   0.083312724921
   3   0.001521444775
   4   0.000019183795
   5   0.000000434297
   6   0.000000013417
   7   0.000000000960
 CPU time [min]:     1.307                   Wall time [min]:     0.031
 
 Constructing local fitting domains...
 Local fitting domains are unchanged.
 
 First step of Coulomb + first step of exchange...
 Exchange contribution is evaluated for MOs 1 to 10.
   1% done.
  13% done.
  25% done.
  41% done.
  52% done.
  64% done.
  81% done.
  92% done.
 100% done.
 Fitting and assembly step of exchange...
 CPU time [min]:     1.518                   Wall time [min]:     0.034
 
 Second step of Coulomb...
   1% done.
  13% done.
  25% done.
  41% done.
  52% done.
  64% done.
  81% done.
  92% done.
 100% done.
 CPU time [min]:     1.558                   Wall time [min]:     0.035
 
 Gradient norm:      3.5873E-03
 DIIS is running in this iteration step.
 RMS of [F,P]:                                         0.00004224981401
 RMS of difference density:                            0.00006395800954
 Gap [au]:  0.45456404
 ALPHA OCC:  10
 BETA  OCC:  10
 
 ***HARTREE-FOCK ENERGY IN STEP   4 IS       -112.4368969522163724 [AU]
 
 Step comparison  Energy Drift [au]  DIIS error drift  Gradient drift
        3            2.6045E-04         7.1947E-05       6.3671E-03
 ======================================================================
 ITERATION STEP   5
 CPU time [min]:     1.585                   Wall time [min]:     0.035
 

 SCF control                  : diis
 Damping factor/level shift   : 0.000/0.000
 DIIS [start/end/frequency]   :   2 /200 /  1

 Constructing Fock-matrix...
 
 Pipek-Mezey localization...
 Step  Convergence
   1   0.122207789521
   2   0.160298974538
   3   0.009465634136
   4   0.000887492392
   5   0.000093918419
   6   0.000009976361
   7   0.000001060199
   8   0.000000112707
   9   0.000000011981
  10   0.000000001274
 CPU time [min]:     1.609                   Wall time [min]:     0.036
 
 Constructing local fitting domains...
 Local fitting domains are unchanged.
 
 First step of Coulomb + first step of exchange...
 Exchange contribution is evaluated for MOs 1 to 10.
   1% done.
  13% done.
  25% done.
  41% done.
  52% done.
  64% done.
  81% done.
  92% done.
 100% done.
 Fitting and assembly step of exchange...
 CPU time [min]:     1.794                   Wall time [min]:     0.039
 
 Second step of Coulomb...
   1% done.
  13% done.
  25% done.
  41% done.
  52% done.
  64% done.
  81% done.
  92% done.
 100% done.
 CPU time [min]:     1.835                   Wall time [min]:     0.039
 
 Gradient norm:      8.9605E-04
 DIIS is running in this iteration step.
 RMS of [F,P]:                                         0.00001891067756
 RMS of difference density:                            0.00003851528506
 Gap [au]:  0.45464080
 ALPHA OCC:  10
 BETA  OCC:  10
 
 ***HARTREE-FOCK ENERGY IN STEP   5 IS       -112.4369240022955978 [AU]
 
 Step comparison  Energy Drift [au]  DIIS error drift  Gradient drift
        4            2.7050E-05         2.3339E-05       2.6913E-03
 ======================================================================
 ITERATION STEP   6
 CPU time [min]:     1.861                   Wall time [min]:     0.040
 

 SCF control                  : diis
 Damping factor/level shift   : 0.000/0.000
 DIIS [start/end/frequency]   :   2 /200 /  1

 Constructing Fock-matrix...
 
 Pipek-Mezey localization...
 Step  Convergence
   1   0.103752466439
   2   0.141217241990
   3   0.007797772427
   4   0.000762046888
   5   0.000081039287
   6   0.000008635609
   7   0.000000920453
   8   0.000000098136
   9   0.000000010463
  10   0.000000001116
  11   0.000000000119
  12   0.000000000013
  13   0.000000000001
  14   0.000000000000
 CPU time [min]:     1.884                   Wall time [min]:     0.040
 
 Constructing local fitting domains...
 Local fitting domains are unchanged.
 
 First step of Coulomb + first step of exchange...
 Exchange contribution is evaluated for MOs 1 to 10.
   1% done.
  13% done.
  25% done.
  41% done.
  52% done.
  64% done.
  81% done.
  92% done.
 100% done.
 Fitting and assembly step of exchange...
 CPU time [min]:     2.068                   Wall time [min]:     0.043
 
 Second step of Coulomb...
   1% done.
  13% done.
  25% done.
  41% done.
  52% done.
  64% done.
  81% done.
  92% done.
 100% done.
 CPU time [min]:     2.109                   Wall time [min]:     0.044
 
 Gradient norm:      1.8709E-04
 DIIS is running in this iteration step.
 RMS of [F,P]:                                         0.00000268030323
 RMS of difference density:                            0.00000572078387
 Gap [au]:  0.45451995
 ALPHA OCC:  10
 BETA  OCC:  10
 
 ***HARTREE-FOCK ENERGY IN STEP   6 IS       -112.4369295348041788 [AU]
 
 Step comparison  Energy Drift [au]  DIIS error drift  Gradient drift
[...]
 

 Direct DF-CCSD(T) calculation
 
 Convergence criterion:  1.0E-05
 
 Number of occupied/virtual/auxiliary orbitals:     7    80   220
     60.53 MB is the minimal memory requirement for (T)
     28.04 MB is the minimal memory requirement for CCSD
 
 MP2 correlation energy [au]:       -0.266599169656
 
 LMP2 domain correlation energy contribution [au]:       -0.059761985353
 
 CPU time [min]:     7.531                   Wall time [min]:     0.141
 
 
 Starting CCSD iterations...
 
                     Residual norm       Correlation Energy
 Iteration  1        0.151032276458       -0.277934337910
 Iteration  2        0.036015316493       -0.284810702394
 Iteration  3        0.010848074725       -0.285578011263
 Iteration  4        0.002490777159       -0.285566590058
 Iteration  5        0.000586065689       -0.285586469799
 Iteration  6        0.000197621520       -0.285585292899
 Iteration  7        0.000050999107       -0.285584499203
 
 CCSD iteration has converged in  7 steps.
      188.36 MB memory was utilized by CCSD
 
 T1 diagnostic:      7.886E-03            D1 diagnostic:      1.774E-02
 
 T1 contribution [au]:                         0.000000000000
 CCSD correlation energy [au]:                -0.062939227028
 
 CPU time [min]:     8.020                   Wall time [min]:     0.149
 
 Calculation of (T) correction...
 
 Laplace threshold, nquadmin:  1.00E-03   4
 Number of quadrature points:    4
 
       71.03 MB memory is utilized for (T)

 0%       25%       50%       75%       100%
 |---------|---------|---------|---------| 
 
 (T) correction [au]:                   -0.002031398984
 CCSD(T) correlation energy [au]:       -0.064970626012
 
 CPU time [min]:     8.335                   Wall time [min]:     0.154
 
 MO:     4
 Number of atoms in domain:       8
    Number of atoms in PCD:       8
 Number of atomic orbitals:     230
 Number of atoms for local DF:    8
 Number of fitting functions:   488 (100.00%)
 Number of occupied orbitals:     8
 Number of virtual  orbitals:   220
 Number of Cholesky vectors:     10
 MP2 energy in ED [au]:          -0.059972775995
 Number of occupied LNOs:         7  (87.50%)
 Number of virtual  LNOs:        82  (37.27%)
 Number of Cholesky vectors:      9
 MP2 energy in LIS [au]:         -0.059911344102
 Correction for frozen LNO [au]: -0.000061431892     (0.102%)
 Number of NAFs:                227  (46.52%)
 CPU time [min]:    10.035                   Wall time [min]:     0.186
 

 Direct DF-CCSD(T) calculation
 
 Convergence criterion:  1.0E-05
 
 Number of occupied/virtual/auxiliary orbitals:     7    82   227
     65.01 MB is the minimal memory requirement for (T)
     29.89 MB is the minimal memory requirement for CCSD
 
 MP2 correlation energy [au]:       -0.297604634523
 
 LMP2 domain correlation energy contribution [au]:       -0.059911558197
 
 CPU time [min]:    10.102                   Wall time [min]:     0.187
 
 
 Starting CCSD iterations...
 
                     Residual norm       Correlation Energy
 Iteration  1        0.159078114976       -0.311888701622
 Iteration  2        0.038466592147       -0.319622769158
 Iteration  3        0.011181154698       -0.320392732932
 Iteration  4        0.002631274767       -0.320408844437
 Iteration  5        0.000768485705       -0.320432914646
 Iteration  6        0.000264193005       -0.320432498860
 Iteration  7        0.000077073744       -0.320431213353
 
 CCSD iteration has converged in  7 steps.
      206.68 MB memory was utilized by CCSD
 
 T1 diagnostic:      8.517E-03            D1 diagnostic:      1.901E-02
 
 T1 contribution [au]:                         0.000000000000
 CCSD correlation energy [au]:                -0.063103244231
 
 CPU time [min]:    10.608                   Wall time [min]:     0.196
 
 Calculation of (T) correction...
 
 Laplace threshold, nquadmin:  1.00E-03   4
 Number of quadrature points:    4
 
       76.20 MB memory is utilized for (T)

 0%       25%       50%       75%       100%
 |---------|---------|---------|---------| 
 
 (T) correction [au]:                   -0.002046303482
 CCSD(T) correlation energy [au]:       -0.065149547713
 
 CPU time [min]:    10.940                   Wall time [min]:     0.201
 
 MO:     5
 Number of atoms in domain:       8
    Number of atoms in PCD:       8
 Number of atomic orbitals:     230
 Number of atoms for local DF:    8
 Number of fitting functions:   488 (100.00%)
 Number of occupied orbitals:     8
 Number of virtual  orbitals:   220
 Number of Cholesky vectors:     10
 MP2 energy in ED [au]:          -0.059781038062
 Number of occupied LNOs:         7  (87.50%)
 Number of virtual  LNOs:        79  (35.91%)
 Number of Cholesky vectors:      9
 MP2 energy in LIS [au]:         -0.059727327098
 Correction for frozen LNO [au]: -0.000053710964     (0.090%)
 Number of NAFs:                218  (44.67%)
 CPU time [min]:    12.556                   Wall time [min]:     0.231
 

 Direct DF-CCSD(T) calculation
 
 Convergence criterion:  1.0E-05
 
 Number of occupied/virtual/auxiliary orbitals:     7    79   218
     58.57 MB is the minimal memory requirement for (T)
     27.27 MB is the minimal memory requirement for CCSD
 
 MP2 correlation energy [au]:       -0.265751288011
 
 LMP2 domain correlation energy contribution [au]:       -0.059727055832
 
 CPU time [min]:    12.621                   Wall time [min]:     0.232
 
 
 Starting CCSD iterations...
 
                     Residual norm       Correlation Energy
 Iteration  1        0.149980262058       -0.276567582498
 Iteration  2        0.035166948301       -0.282970588479
 Iteration  3        0.010663110157       -0.283706343392
 Iteration  4        0.002424167438       -0.283703814162
 Iteration  5        0.000673262268       -0.283728612974
 Iteration  6        0.000213606319       -0.283730059722
 Iteration  7        0.000057225992       -0.283729023831
 
 CCSD iteration has converged in  7 steps.
      179.77 MB memory was utilized by CCSD
 
 T1 diagnostic:      7.211E-03            D1 diagnostic:      1.839E-02
 
 T1 contribution [au]:                         0.000000000000
 CCSD correlation energy [au]:                -0.062909431667
 
 CPU time [min]:    13.107                   Wall time [min]:     0.240
 
 Calculation of (T) correction...
 
 Laplace threshold, nquadmin:  1.00E-03   4
 Number of quadrature points:    4
 
       68.67 MB memory is utilized for (T)

 0%       25%       50%       75%       100%
 |---------|---------|---------|---------| 
 
 (T) correction [au]:                   -0.002026548674
 CCSD(T) correlation energy [au]:       -0.064935980341
 
 CPU time [min]:    13.401                   Wall time [min]:     0.245
 
 MO:     6
 Number of atoms in domain:       8
    Number of atoms in PCD:       8
 Number of atomic orbitals:     230
 Number of atoms for local DF:    8
 Number of fitting functions:   488 (100.00%)
 Number of occupied orbitals:     8
 Number of virtual  orbitals:   220
 Number of Cholesky vectors:     10
 MP2 energy in ED [au]:          -0.059856049036
 Number of occupied LNOs:         7  (87.50%)
 Number of virtual  LNOs:        79  (35.91%)
 Number of Cholesky vectors:      9
 MP2 energy in LIS [au]:         -0.059793510990
 Correction for frozen LNO [au]: -0.000062538046     (0.104%)
 Number of NAFs:                218  (44.67%)
 CPU time [min]:    15.043                   Wall time [min]:     0.275
 

 Direct DF-CCSD(T) calculation
 
 Convergence criterion:  1.0E-05
 
 Number of occupied/virtual/auxiliary orbitals:     7    79   218
     58.57 MB is the minimal memory requirement for (T)
     27.27 MB is the minimal memory requirement for CCSD
 
 MP2 correlation energy [au]:       -0.267539267287
 
 LMP2 domain correlation energy contribution [au]:       -0.059793718557
 
 CPU time [min]:    15.108                   Wall time [min]:     0.276
 
 
 Starting CCSD iterations...
 
                     Residual norm       Correlation Energy
 Iteration  1        0.150189981214       -0.278830383098
 Iteration  2        0.036026098449       -0.285698044970
 Iteration  3        0.010795909573       -0.286432923695
 Iteration  4        0.002530642269       -0.286415622970
 Iteration  5        0.000580746265       -0.286434742007
 Iteration  6        0.000195479628       -0.286433611802
 Iteration  7        0.000048446514       -0.286432567482
 
 CCSD iteration has converged in  7 steps.
      179.77 MB memory was utilized by CCSD
 
 T1 diagnostic:      8.483E-03            D1 diagnostic:      2.024E-02
 
 T1 contribution [au]:                         0.000000000000
 CCSD correlation energy [au]:                -0.062973226957
 
 CPU time [min]:    15.597                   Wall time [min]:     0.284
 
 Calculation of (T) correction...
 
 Laplace threshold, nquadmin:  1.00E-03   4
 Number of quadrature points:    4
 
       68.67 MB memory is utilized for (T)

 0%       25%       50%       75%       100%
 |---------|---------|---------|---------| 
 
 (T) correction [au]:                   -0.002032598021
 CCSD(T) correlation energy [au]:       -0.065005824978
 
 CPU time [min]:    15.888                   Wall time [min]:     0.289
 
 MO:     7
 Number of atoms in domain:       8
    Number of atoms in PCD:       8
 Number of atomic orbitals:     230
 Number of atoms for local DF:    8
 Number of fitting functions:   488 (100.00%)
 Number of occupied orbitals:     8
 Number of virtual  orbitals:   220
 Number of Cholesky vectors:     10
 MP2 energy in ED [au]:          -0.059837078192
 Number of occupied LNOs:         7  (87.50%)
 Number of virtual  LNOs:        79  (35.91%)
 Number of Cholesky vectors:      9
 MP2 energy in LIS [au]:         -0.059782029297
 Correction for frozen LNO [au]: -0.000055048894     (0.092%)
 Number of NAFs:                218  (44.67%)
 CPU time [min]:    17.504                   Wall time [min]:     0.319
 

 Direct DF-CCSD(T) calculation
 
 Convergence criterion:  1.0E-05
 
 Number of occupied/virtual/auxiliary orbitals:     7    79   218
     58.57 MB is the minimal memory requirement for (T)
     27.27 MB is the minimal memory requirement for CCSD
 
 MP2 correlation energy [au]:       -0.265971889823
 
 LMP2 domain correlation energy contribution [au]:       -0.059781805023
 
 CPU time [min]:    17.569                   Wall time [min]:     0.320
 
 
 Starting CCSD iterations...
 
                     Residual norm       Correlation Energy
 Iteration  1        0.150390987707       -0.276930045511
 Iteration  2        0.035379325022       -0.283431656646
 Iteration  3        0.010686302683       -0.284167826765
 Iteration  4        0.002455713256       -0.284162577418
 Iteration  5        0.000692063358       -0.284187634137
 Iteration  6        0.000219670654       -0.284189330399
 Iteration  7        0.000060253789       -0.284188149427
 
 CCSD iteration has converged in  7 steps.
      179.77 MB memory was utilized by CCSD
 
 T1 diagnostic:      7.350E-03            D1 diagnostic:      1.873E-02
 
 T1 contribution [au]:                         0.000000000000
 CCSD correlation energy [au]:                -0.062964894175
 
 CPU time [min]:    18.057                   Wall time [min]:     0.328
 
 Calculation of (T) correction...
 
 Laplace threshold, nquadmin:  1.00E-03   4
 Number of quadrature points:    4
 
       68.67 MB memory is utilized for (T)

 0%       25%       50%       75%       100%
 |---------|---------|---------|---------| 
 
 (T) correction [au]:                   -0.002031625953
 CCSD(T) correlation energy [au]:       -0.064996520128
 
 CPU time [min]:    18.351                   Wall time [min]:     0.333
 
 MO:     8
 Number of atoms in domain:       8
    Number of atoms in PCD:       8
 Number of atomic orbitals:     230
 Number of atoms for local DF:    8
 Number of fitting functions:   488 (100.00%)
 Number of occupied orbitals:     8
 Number of virtual  orbitals:   220
 Number of Cholesky vectors:     10
 MP2 energy in ED [au]:          -0.059972846908
 Number of occupied LNOs:         7  (87.50%)
 Number of virtual  LNOs:        82  (37.27%)
 Number of Cholesky vectors:      9
 MP2 energy in LIS [au]:         -0.059907202008
 Correction for frozen LNO [au]: -0.000065644900     (0.109%)
 Number of NAFs:                228  (46.72%)
 CPU time [min]:    20.023                   Wall time [min]:     0.364
 

 Direct DF-CCSD(T) calculation
 
 Convergence criterion:  1.0E-05
 
 Number of occupied/virtual/auxiliary orbitals:     7    82   228
     65.15 MB is the minimal memory requirement for (T)
     29.98 MB is the minimal memory requirement for CCSD
 
 MP2 correlation energy [au]:       -0.283516882896
 
 LMP2 domain correlation energy contribution [au]:       -0.059907096117
 
 CPU time [min]:    20.089                   Wall time [min]:     0.365
 
 
 Starting CCSD iterations...
 
                     Residual norm       Correlation Energy
 Iteration  1        0.154689661792       -0.296698423374
 Iteration  2        0.037115043800       -0.304100875983
 Iteration  3        0.010901651056       -0.304829506422
 Iteration  4        0.002566963928       -0.304828357667
 Iteration  5        0.000630420916       -0.304850615099
 Iteration  6        0.000212563390       -0.304849738822
 Iteration  7        0.000055713754       -0.304848686721
 
 CCSD iteration has converged in  7 steps.
      206.77 MB memory was utilized by CCSD
 
 T1 diagnostic:      8.394E-03            D1 diagnostic:      1.791E-02
 
 T1 contribution [au]:                         0.000000000000
 CCSD correlation energy [au]:                -0.063090444049
 
 CPU time [min]:    20.628                   Wall time [min]:     0.374
 
 Calculation of (T) correction...
 
 Laplace threshold, nquadmin:  1.00E-03   4
 Number of quadrature points:    4
 
       76.29 MB memory is utilized for (T)

 0%       25%       50%       75%       100%
 |---------|---------|---------|---------| 
 
 (T) correction [au]:                   -0.002046207227
 CCSD(T) correlation energy [au]:       -0.065136651275
 
 CPU time [min]:    20.959                   Wall time [min]:     0.380
 
 **********************************************************************
 Dimensions of the extended domains:    Minimum / Average / Maximum
 
 Number of atoms in domain:                   8       8.0         8
 Number of atomic orbitals:                 230     230.0       230
 Number of fitting functions:               488     488.0       488
 Number of occupied localized MOs:            8       8.0         8
 Number of PAOs:                            220     220.0       220
 Number of occupied LNOs:                     7       7.0         7
 Number of virtual  LNOs:                    79      80.6        84
 Number of NAFs:                            218     223.4       235
 
 **********************************************************************
 Distant (and weak) pair contributions, corrections
 
 Sum of pair energies [au]:                     0.000000000000    (0.000%)
 Sum of energy corrections [au]:               -0.000501519888    (0.104%)
 Pair energies + LNO corrections [au]:         -0.000501519888
 Sum of LMP2 contributions [au]:               -0.483077367924
 
 **********************************************************************
  Time of manipulations in the EDs:      max CPU/Wall [s]  all CPU/Wall [min]
 
 PD construction & multipole pair E      11.29     0.22     0.19     0.00
 Construct MO basis of the ED             1.91     0.03     0.24     0.00
 (mu,nu|P) evaluation & trf 2 (ai|P)     11.25     0.18     1.33     0.02
 Evaluate MP2 energy of the ED            0.66     0.01     0.09     0.00
 Transformations to the LNO basis         1.91     0.03     0.23     0.00
 Build W_PQ (Jai or Jpi part)             0.84     0.02     0.04     0.00
 Evaluate MP2 energy of the LIS           0.09     0.00     0.01     0.00
 (mu,nu|P) evaluation & trf 2 J(abQ)     88.93     1.64     9.66     0.17
 Total of the above for all EDs         105.60     1.92    11.60     0.20
 
 **********************************************************************
 Maximum memory requirement [MB]:       
 
 PD construction & multipole pair E          3.8
 AO integral evaluation in the EDs        1094.5
 (mu,nu|P) evaluation & trf 2 (aI|P)      1144.0
 Evaluate MP2 energy in the EDs             31.1
 Transformation to the LNO basis            14.4
 (mu,nu|P) to Jab transformation          1104.3
 Evaluate MP2 energy in the LIS             18.2
 Minimum requirement for LIS CCSD           31.9
 Actually allocated  for LIS CCSD          226.5
 Minimum requirement for LIS (T)            69.9
 Actually allocated  for LIS (T)            81.7
 
 ======================================================================
 ======================================================================
 
 
 
 ======================================================================
 ======================================================================
 
 Final local CC results:
 
 Minimum number of correlated electrons:        14       ( 87.5%)
 Maximum number of correlated electrons:        14       ( 87.5%)
 Average number of correlated electrons:        14.0     ( 87.5%)
 Minimum number of correlated orbitals:         86       ( 37.7%)
 Maximum number of correlated orbitals:         91       ( 39.9%)
 Average number of correlated orbitals:         87.6     ( 38.4%)
 
 CPU time for integral calculations [min]:                  0.383
 Wall time for integral calculations [min]:                 0.009
 
 CPU time for SCF calculation [min]:                        4.221
 Wall time for SCF calculation [min]:                       0.112
 
 CPU time for orbital localization [min]:                   0.215
 Wall time for orbital localization [min]:                  0.040
 
 CPU time for integral transformations [min]:              13.920
 Wall time for integral transformations [min]:              0.264
 
 Reference energy [au]:                                  -112.436929638270
 
 LMP2 correlation energy [au]:                             -0.483077367924
 Total LMP2 energy [au]:                                 -112.920007006194
 
 Total MP2 correction for dropped NAFs [au]:               -0.000004920571
 Total MP2 correction [au]:                                -0.000506440459
 
 CPU time for CCSD calculations [min]:                      4.525
 Total CPU time for CCSD [min]:                            23.265
 Wall time for CCSD calculations [min]:                     0.074
 Total wall time for CCSD [min]:                            0.498
 
 CCSD correlation energy [au]:                             -0.506427917728
 Total CCSD energy [au]:                                 -112.943357555998
 CCSD correlation energy + 0.5 MP2 corrections [au]:       -0.506681137958
 Total LNO-CCSD energy with MP2 corrections [au]:        -112.943610776228
 
 CPU time for (T) corrections [min]:                        2.538
 Total CPU time for CCSD(T) [min]:                         25.803
 Wall time for (T) corrections [min]:                       0.043
 Total wall time for CCSD(T) [min]:                         0.541
 
 Total (T) correlation energy contribution [au]:           -0.016887431822
 Total (T) correlation energy+0.5 MP2 correction [au]:     -0.017140652052
 CCSD(T) correlation energy [au]:                          -0.523315349550
 Total CCSD(T) energy [au]:                              -112.960244987820
 CCSD(T) correlation energy + MP2 corrections [au]:        -0.523821790010
 Total LNO-CCSD(T) energy with MP2 corrections [au]:     -112.960751428280
 
 ======================================================================
 ======================================================================
 
 ************************ 2026-02-26 16:13:07 *************************
                      Normal termination of mrcc.
 **********************************************************************
