 **********************************************************************
                          MRCC program system
 **********************************************************************
 
                              Written by
     Mihaly Kallay, Peter R. Nagy, David Mester, Laszlo Gyevi-Nagy,
        Jozsef Csoka, P. Bernat Szabo, Zoltan Rolik, Gyula Samu,
     Jozsef Csontos, Bence Hegely, Adam Ganyecz, Istvan Ladjanszki,
       Lorant Szegedy, Bence Ladoczki, Klara Petrov, Mate Farkas,
                    Pal D. Mezei, and Reka A. Horvath
 
        Department of Physical Chemistry and Materials Science
            Budapest University of Technology and Economics
                  Budapest P.O.Box 91, H-1521 Hungary
 
                              www.mrcc.hu
 
                     Release date: August 28, 2023

 ************************ 2026-02-26 21:26:15 *************************
 Executing minp...

 Reading input from MINP...
 
 Input file:
 
charge=0
mult=1
calc=LNO-CCSD(T)
basis=aug-cc-pVDZ
symm=off
verbosity=3
unit=angs
scfalg=locfit1
scfmaxit=200
scftol=8
basis_sm=def2-SVP
usedisk=0
aocd=extra
chtol=1d-6
iesttol=0.001
scfiguess=small
lcorthr=tight
mem=46GB
ghost=serialno
1-8

geom=xyz
12

N      1.04470516527    1.04467805385    1.04472620470
H      1.86198065727    1.39631551807    0.53263274880
H      1.39638040304    0.53260276511    1.86208371977
H      0.53256262530    1.86191282917    1.39633599251
N      3.60995473454    1.52057191074    4.08577558721
H      4.42722968319    1.16893531034    4.59786809656
H      3.96163147006    2.03264798552    3.26841604077
H      3.09781293566    0.70333789254    3.73416418411
N      4.08580437245    3.60992628524    6.65101993408
H      3.73412022664    3.09785482065    5.83367042895
H      4.59792989480    4.42715858900    6.29942160276
H      3.26851213636    3.96156461954    7.16312088514
 
 
 Checking keyword combinations...
 
 Keywords:
 
 active=none
 agrid=ld0006-ld0590
 agrid_pssp=ld0006-ld0194
 agrid_pssp_sm=ld0006-ld0074
 basis=aug-cc-pvdz
 basis_sm=def2-svp
 basopt=off
 bfbasis=none
 bfgsmem=10
 bfgstol=1.0d-3
 boysalg=jacobi
 bpcompo=0.985
 bpcompv=0.98
 bpdfo=0.985
 bpocc=0.99995d0
 bppdo=0.999d0
 bppdv=0.98
 bpedo=0.99995d0
 bpedv=0.995d0
 calc=ccsd(t)
 ccmaxit=50
 ccprog=ccsd
 ccsdalg=dfdirect
 ccsdmkl=seq
 ccsdrest=off
 ccsdthreads=2
 cctol=5
 charge=0
 cialg=direct
 ciguess=off
 cmpgrp=auto
 comprest=off
 coord_sys=ric
 core=frozen
 corembed=off
 csapprox=off
 cvs=off
 dboc=off
 delocsomofact=
 dendec=cholesky
 dens=0
 denscorr=0
 dfalg=lineq
 dfbasis_cab=none
 dfbasis_cor=auto
 dfbasis_scf=auto
 dfbasis_scf_sm=auto
 dfintran=drpa
 dft=off
 dhexc=adc(2)
 diag=david
 docc=
 domrad=10.d0
 drpaalg=auto
 dual=off
 dual_df=off
 ecp=auto
 edisp=off
 edisp_embed=off
 embed=off
 epairestfact=off
 epairscale=1.d0
 etemp=300
 epert=none
 eps=
 espcharge=off
 excrad=1.0
 excrad_fin=0.100000000D-02
 fitting=coulomb
 fmm=off
 fmmord=8
 fnonorb=
 freq=off
 gamma=1.d0
 gauss=spher
 geom=xyz
 gopt=off
 ghost=serialno
 gtol=7
 grdens=off
 grid=auto
 grid_sm=auto
 gridbatch_cos=2000
 grtol=10
 guido_ct=off
 hamilton=dc
 iface=none
 intalg=auto
 ip_ea=off
 itol=12
 laptol=1.d-3
 lccoporder=lccfirst
 lcorthr=tight
 lccrest=off
 ldfgrad_tol=8
 lmp2dens=on
 lnoepso=3e-6
 lnoepsv=3e-7
 localcc=2021
 localcorrsymm=off
 locintrf=direct
 mact=
 maxact=off
 maxdim=200
 maxex=0
 maxmicroit=100
 mcscfiguess=hf
 mem=46gb
 mmprog=
 molden=on
 mpitasks=1
 mulmet=3
 mult=1
 nab=off
 nacto=0
 nactv=0
 naf_amp=3.16d-3
 naf_cor=1e-2
 naf_f12=off
 naf_scf=off
 nafalg=albe
 nafdens=off
 naftyp=jpq
 nchol=auto
 ndeps=1e-3
 nstate=1
 nsing=0
 nto=off
 ntrip=0
 num_grad=off
 occ=
 occri=off
 oniom=off
 oniom_eechg=off
 oniom_pcm=off
 oniom_qcorr=off
 optalg=
 optmaxit=50
 optetol=1e-6
 optex=0
 optgtol=1e-4
 optstol=1e-3
 orblocc=off
 orbloce=off
 orbloco=boys
 orblocv=pao
 orblocguess=cholesky
 osveps=-1.d0
 ovirt=off
 ovltol=1e-7
 ovosnorb=80.0
 pao_subsys_tol=1e-3
 pcm=off
 popul=off
 pressure=100000
 pssp=off
 ptfreq=0.0
 ptthreads=2
 qmreg=
 qmmm=off
 qro=off
 qscf=off
 redcost_exc=off
 redcost_tddft=0.985d0
 refdet=none
 rest=0
 rgrid=log3
 rism=off
 rohfcore=standard
 rohftype=semicanonical
 scfalg=locfit1
 scf_conv=auto
 scfdamp=0.0d0
 scfdamp_mode=off
 scfdamp_end=200
 scfdamp_dampstep=0.d0
 scfdamp_dtol=0.0d0
 scfdamp_maxfact=0.0d0
 scfdamp_minfact=0.0d0
 scfdiis=on
 scfdiis_dtol=0.0d0
 scfdiis_end=200
 scfdiis_start=2
 scfdiis_step=1
 scfdiis_watch=off
 scfdiis_wrange=10
 scfdiis_wlimit=5
 scfdiis_delmax=2
 scfdtol=9
 scfext=10
 scfguessdens=
 scfiguess=small
 scfloc=pm
 scflshift=0.20
 scflshift_end=8
 scflshift_dtol=0.0
 scflshift_gaptol=0.20
 scfmaxit=200
 scftype=
 scftol=8
 scspe=1.d0
 scsph=1.d0
 scsps=1.2d0
 scsps_t=1.2d0
 scspt=0.33333333333333
 scspt_t=0.33333333333333
 scspv=1.d0
 spairtol=-1.d0
 sqmprog=
 subminp=top
 symm=0
 talg=lapl
 temp=298.15
 test=off
 theodore=off
 tlmo=0.999
 tpao=0.94
 tprint=off
 uncontract=off
 unit=angs
 usedisk=0
 verbosity=3
 wpairtol=3.d-6
 
 Calculating integrals for small-basis SCF...

 ************************ 2026-02-26 21:26:16 *************************
 Executing integ...

 Allocation of 46.0 Gbytes of memory...
 
 
 Number of atoms:                 12
 Charge:                           0
 Number of electrons:             10
 Number of core electrons:         2
 Spin multiplicity:                1
 
                 Cartesian coordinates [bohr]      Atomic mass [AMU]  Z
   1  N     1.97420664    1.97415541    1.97424640     0.000000       0
   2  H     3.51863349    2.63865391    1.00653002     0.000000       0
   3  H     2.63877653    1.00647336    3.51882825     0.000000       0
   4  H     1.00639751    3.51850532    2.63869260     0.000000       0
   5  N     6.82182577    2.87346447    7.72099687     0.000000       0
   6  H     8.36625160    2.20896759    8.68871146     0.000000       0
   7  H     7.48639849    3.84114800    6.17641118     0.000000       0
   8  H     5.85401804    1.32911599    7.05654762     0.000000       0
   9  N     7.72105127    6.82177201   12.56860613    14.003074       7
  10  H     7.05646455    5.85409719   11.02403942     1.007825       1
  11  H     8.68882825    8.36611725   11.90418158     1.007825       1
  12  H     6.17659278    7.48627216   13.53633668     1.007825       1
 
 This molecule is an asymmetric top.
 
 Point group: C1  
 Computational point group: C1  
 
 Cartesian coordinates in standard orientation [bohr]
   1  N   -11.32786708    1.02997981   -0.10644912
   2  H   -11.23240140    0.17993112   -1.84759560
   3  H   -10.22848380   -0.01564496    1.10260837
   4  H   -10.49553452    2.77420167   -0.27399771
   5  N    -4.37915060   -1.95296745    0.28171825
   6  H    -3.27869589   -3.53054484    0.53376538
   7  H    -4.96392791   -1.95195715   -1.56810546
   8  H    -5.96090412   -2.17592605    1.38240081
   9  N     1.62169322    0.00429534    0.04496870
  10  H    -0.31159387   -0.14319808    0.11132473
  11  H     2.12022769    0.16425580   -1.82289920
  12  H     2.09886788    1.67368669    0.91033092
 
 Nuclear repulsion energy [au]:         11.785807877699
 
Warning: for H atoms in the case of dfbasis_scf=auto the AO basis is set as dfbasis_scf instead of def2-qzvp(pd)-ri-jk because the AO basis is larger. Set the dfbasis_scf=def2-qzvp(pd)-ri-jk in MINP if that is desired.
 
 
 Basis set information:
 
 Maximum angular momentum: g
 Maximum number of contracted Gaussians:   10
 Maximum number of primitive Gaussians:    14
 Spherical harmonic GTOs are used.
 
 
 Conventional basis set:
 
   1  N  def2-svp [ 7s 4p 1d | 3s 2p 1d ]
   2  H  def2-svp [ 4s 1p | 2s 1p ]
   3  H  def2-svp [ 4s 1p | 2s 1p ]
   4  H  def2-svp [ 4s 1p | 2s 1p ]
   5  N  def2-svp [ 7s 4p 1d | 3s 2p 1d ]
   6  H  def2-svp [ 4s 1p | 2s 1p ]
   7  H  def2-svp [ 4s 1p | 2s 1p ]
   8  H  def2-svp [ 4s 1p | 2s 1p ]
   9  N  def2-svp [ 7s 4p 1d | 3s 2p 1d ]
  10  H  def2-svp [ 4s 1p | 2s 1p ]
  11  H  def2-svp [ 4s 1p | 2s 1p ]
  12  H  def2-svp [ 4s 1p | 2s 1p ]
 
 Basis functions:
            1             2             3             4             5             6             7             8             9            10
    0    1N1s          1N2s          1N3s          1N1pz         1N1py         1N1px         1N2pz         1N2py         1N2px         1N1d-2    
    1    1N1d-1        1N1d0         1N1d+1        1N1d+2        2H1s          2H2s          2H1pz         2H1py         2H1px         3H1s      
    2    3H2s          3H1pz         3H1py         3H1px         4H1s          4H2s          4H1pz         4H1py         4H1px         5N1s      
    3    5N2s          5N3s          5N1pz         5N1py         5N1px         5N2pz         5N2py         5N2px         5N1d-2        5N1d-1    
    4    5N1d0         5N1d+1        5N1d+2        6H1s          6H2s          6H1pz         6H1py         6H1px         7H1s          7H2s      
    5    7H1pz         7H1py         7H1px         8H1s          8H2s          8H1pz         8H1py         8H1px         9N1s          9N2s      
    6    9N3s          9N1pz         9N1py         9N1px         9N2pz         9N2py         9N2px         9N1d-2        9N1d-1        9N1d0     
    7    9N1d+1        9N1d+2       10H1s         10H2s         10H1pz        10H1py        10H1px        11H1s         11H2s         11H1pz     
    8   11H1py        11H1px        12H1s         12H2s         12H1pz        12H1py        12H1px     
 
 Maximum number of basis functions per shell:    6
 Total number of basis functions:     87
 
 
 Fitting basis set for the SCF calculation:
 
   1  N  def2-qzvpp-ri-jk [ 14s 10p 6d 2f 1g | 10s 8p 4d 2f 1g ]
   2  H  def2-qzvpp [ 7s 3p 2d 1f | 4s 3p 2d 1f ]
   3  H  def2-qzvpp [ 7s 3p 2d 1f | 4s 3p 2d 1f ]
   4  H  def2-qzvpp [ 7s 3p 2d 1f | 4s 3p 2d 1f ]
   5  N  def2-qzvpp-ri-jk [ 14s 10p 6d 2f 1g | 10s 8p 4d 2f 1g ]
   6  H  def2-qzvpp [ 7s 3p 2d 1f | 4s 3p 2d 1f ]
   7  H  def2-qzvpp [ 7s 3p 2d 1f | 4s 3p 2d 1f ]
   8  H  def2-qzvpp [ 7s 3p 2d 1f | 4s 3p 2d 1f ]
   9  N  def2-qzvpp-ri-jk [ 14s 10p 6d 2f 1g | 10s 8p 4d 2f 1g ]
  10  H  def2-qzvpp [ 7s 3p 2d 1f | 4s 3p 2d 1f ]
  11  H  def2-qzvpp [ 7s 3p 2d 1f | 4s 3p 2d 1f ]
  12  H  def2-qzvpp [ 7s 3p 2d 1f | 4s 3p 2d 1f ]
 
 Basis functions:
            1             2             3             4             5             6             7             8             9            10
    0    1N1s          1N2s          1N3s          1N4s          1N5s          1N6s          1N7s          1N8s          1N9s          1N10s     
    1    1N1pz         1N1py         1N1px         1N2pz         1N2py         1N2px         1N3pz         1N3py         1N3px         1N4pz     
    2    1N4py         1N4px         1N5pz         1N5py         1N5px         1N6pz         1N6py         1N6px         1N7pz         1N7py     
    3    1N7px         1N8pz         1N8py         1N8px         1N1d-2        1N1d-1        1N1d0         1N1d+1        1N1d+2        1N2d-2    
    4    1N2d-1        1N2d0         1N2d+1        1N2d+2        1N3d-2        1N3d-1        1N3d0         1N3d+1        1N3d+2        1N4d-2    
    5    1N4d-1        1N4d0         1N4d+1        1N4d+2        1N1f-3        1N1f-2        1N1f-1        1N1f0         1N1f+1        1N1f+2    
    6    1N1f+3        1N2f-3        1N2f-2        1N2f-1        1N2f0         1N2f+1        1N2f+2        1N2f+3        1N1g-4        1N1g-3    
    7    1N1g-2        1N1g-1        1N1g0         1N1g+1        1N1g+2        1N1g+3        1N1g+4        2H1s          2H2s          2H3s      
    8    2H4s          2H1pz         2H1py         2H1px         2H2pz         2H2py         2H2px         2H3pz         2H3py         2H3px     
    9    2H1d-2        2H1d-1        2H1d0         2H1d+1        2H1d+2        2H2d-2        2H2d-1        2H2d0         2H2d+1        2H2d+2    
   10    2H1f-3        2H1f-2        2H1f-1        2H1f0         2H1f+1        2H1f+2        2H1f+3        3H1s          3H2s          3H3s      
   11    3H4s          3H1pz         3H1py         3H1px         3H2pz         3H2py         3H2px         3H3pz         3H3py         3H3px     
   12    3H1d-2        3H1d-1        3H1d0         3H1d+1        3H1d+2        3H2d-2        3H2d-1        3H2d0         3H2d+1        3H2d+2    
   13    3H1f-3        3H1f-2        3H1f-1        3H1f0         3H1f+1        3H1f+2        3H1f+3        4H1s          4H2s          4H3s      
   14    4H4s          4H1pz         4H1py         4H1px         4H2pz         4H2py         4H2px         4H3pz         4H3py         4H3px     
   15    4H1d-2        4H1d-1        4H1d0         4H1d+1        4H1d+2        4H2d-2        4H2d-1        4H2d0         4H2d+1        4H2d+2    
   16    4H1f-3        4H1f-2        4H1f-1        4H1f0         4H1f+1        4H1f+2        4H1f+3        5N1s          5N2s          5N3s      
   17    5N4s          5N5s          5N6s          5N7s          5N8s          5N9s          5N10s         5N1pz         5N1py         5N1px     
   18    5N2pz         5N2py         5N2px         5N3pz         5N3py         5N3px         5N4pz         5N4py         5N4px         5N5pz     
   19    5N5py         5N5px         5N6pz         5N6py         5N6px         5N7pz         5N7py         5N7px         5N8pz         5N8py     
   20    5N8px         5N1d-2        5N1d-1        5N1d0         5N1d+1        5N1d+2        5N2d-2        5N2d-1        5N2d0         5N2d+1    
   21    5N2d+2        5N3d-2        5N3d-1        5N3d0         5N3d+1        5N3d+2        5N4d-2        5N4d-1        5N4d0         5N4d+1    
   22    5N4d+2        5N1f-3        5N1f-2        5N1f-1        5N1f0         5N1f+1        5N1f+2        5N1f+3        5N2f-3        5N2f-2    
   23    5N2f-1        5N2f0         5N2f+1        5N2f+2        5N2f+3        5N1g-4        5N1g-3        5N1g-2        5N1g-1        5N1g0     
   24    5N1g+1        5N1g+2        5N1g+3        5N1g+4        6H1s          6H2s          6H3s          6H4s          6H1pz         6H1py     
   25    6H1px         6H2pz         6H2py         6H2px         6H3pz         6H3py         6H3px         6H1d-2        6H1d-1        6H1d0     
   26    6H1d+1        6H1d+2        6H2d-2        6H2d-1        6H2d0         6H2d+1        6H2d+2        6H1f-3        6H1f-2        6H1f-1    
   27    6H1f0         6H1f+1        6H1f+2        6H1f+3        7H1s          7H2s          7H3s          7H4s          7H1pz         7H1py     
   28    7H1px         7H2pz         7H2py         7H2px         7H3pz         7H3py         7H3px         7H1d-2        7H1d-1        7H1d0     
   29    7H1d+1        7H1d+2        7H2d-2        7H2d-1        7H2d0         7H2d+1        7H2d+2        7H1f-3        7H1f-2        7H1f-1    
   30    7H1f0         7H1f+1        7H1f+2        7H1f+3        8H1s          8H2s          8H3s          8H4s          8H1pz         8H1py     
   31    8H1px         8H2pz         8H2py         8H2px         8H3pz         8H3py         8H3px         8H1d-2        8H1d-1        8H1d0     
   32    8H1d+1        8H1d+2        8H2d-2        8H2d-1        8H2d0         8H2d+1        8H2d+2        8H1f-3        8H1f-2        8H1f-1    
   33    8H1f0         8H1f+1        8H1f+2        8H1f+3        9N1s          9N2s          9N3s          9N4s          9N5s          9N6s      
   34    9N7s          9N8s          9N9s          9N10s         9N1pz         9N1py         9N1px         9N2pz         9N2py         9N2px     
   35    9N3pz         9N3py         9N3px         9N4pz         9N4py         9N4px         9N5pz         9N5py         9N5px         9N6pz     
   36    9N6py         9N6px         9N7pz         9N7py         9N7px         9N8pz         9N8py         9N8px         9N1d-2        9N1d-1    
   37    9N1d0         9N1d+1        9N1d+2        9N2d-2        9N2d-1        9N2d0         9N2d+1        9N2d+2        9N3d-2        9N3d-1    
   38    9N3d0         9N3d+1        9N3d+2        9N4d-2        9N4d-1        9N4d0         9N4d+1        9N4d+2        9N1f-3        9N1f-2    
   39    9N1f-1        9N1f0         9N1f+1        9N1f+2        9N1f+3        9N2f-3        9N2f-2        9N2f-1        9N2f0         9N2f+1    
   40    9N2f+2        9N2f+3        9N1g-4        9N1g-3        9N1g-2        9N1g-1        9N1g0         9N1g+1        9N1g+2        9N1g+3    
   41    9N1g+4       10H1s         10H2s         10H3s         10H4s         10H1pz        10H1py        10H1px        10H2pz        10H2py     
   42   10H2px        10H3pz        10H3py        10H3px        10H1d-2       10H1d-1       10H1d0        10H1d+1       10H1d+2       10H2d-2    
   43   10H2d-1       10H2d0        10H2d+1       10H2d+2       10H1f-3       10H1f-2       10H1f-1       10H1f0        10H1f+1       10H1f+2    
   44   10H1f+3       11H1s         11H2s         11H3s         11H4s         11H1pz        11H1py        11H1px        11H2pz        11H2py     
   45   11H2px        11H3pz        11H3py        11H3px        11H1d-2       11H1d-1       11H1d0        11H1d+1       11H1d+2       11H2d-2    
   46   11H2d-1       11H2d0        11H2d+1       11H2d+2       11H1f-3       11H1f-2       11H1f-1       11H1f0        11H1f+1       11H1f+2    
   47   11H1f+3       12H1s         12H2s         12H3s         12H4s         12H1pz        12H1py        12H1px        12H2pz        12H2py     
   48   12H2px        12H3pz        12H3py        12H3px        12H1d-2       12H1d-1       12H1d0        12H1d+1       12H1d+2       12H2d-2    
   49   12H2d-1       12H2d0        12H2d+1       12H2d+2       12H1f-3       12H1f-2       12H1f-1       12H1f0        12H1f+1       12H1f+2    
   50   12H1f+3    
 
 Maximum number of basis functions per shell:   24
 Total number of basis functions:    501
 
 
 Initializing the SAD routines for the initial guess...
 Checking the files required for the initial guess...
 Atomic density files have been found for the atoms with the following serial numbers:
  
 Atomic density files have not been found for the atoms with the following serial numbers:
  9 10 11 12
 Generating SCFDENSITIES.N.def2-svp.0
 Generating SCFDENSITIES.H.def2-svp.0
 CPU time [min]:     0.220                   Wall time [min]:     0.143
 
 Character table for point group C1:
 
          E  
    A     1
 
 Number of basis functions per irrep:
    A      87
 
 
 Calculation of overlap integrals...
 CPU time [min]:     0.226                   Wall time [min]:     0.144
 
 Calculation of the square root of the overlap matrix...
 Minimum eigenvalue of the overlap matrix: 0.236383E-01
 CPU time [min]:     0.238                   Wall time [min]:     0.144
 
 Calculation of kinetic energy integrals...
 CPU time [min]:     0.239                   Wall time [min]:     0.144
 Calculation of dipole moment integrals...
 CPU time [min]:     0.239                   Wall time [min]:     0.144
 Calculation of nuclear attraction integrals...
 CPU time [min]:     0.241                   Wall time [min]:     0.144
 
 Calculation of prescreening integrals...
 CPU time [min]:     0.260                   Wall time [min]:     0.144
 
 Calculation of two-center Coulomb integrals...
   1% done.
  13% done.
  24% done.
  35% done.
  47% done.
  60% done.
  72% done.
  86% done.
  97% done.
 100% done.
 CPU time [min]:     0.272                   Wall time [min]:     0.144
 
 Cholesky decomposition of the two-center matrix...
 Reciprocal of the condition number:  0.922361E-05
 CPU time [min]:     0.299                   Wall time [min]:     0.145
 
 
 Running small-basis SCF...

 ************************ 2026-02-26 21:26:24 *************************
 Executing scf...

 @scfsetup: integrals calculated directly
            mrcc/integ direct run
 @scfsetup: calculating on full matrices
            not using symmetry adapted basis
 @scfsetup: diis switched on
 @scfsetup: number of steps to extrapolate from  10
 @scfsetup: tolerance in energy deviation    0.100000E-07
            tolerance in density deviation    0.100000E-08
 @scfsetup: maximum number of iterations: 200
 @scfsetup: restricted closed shell hf calc
 @scfsetup: starting scf from superposition of atomic densities
 @scfsetup: occupation set:
            from initial orbitals
 @scfsetup: Parameter-set for SCF acceleration: normal
 @scfsetup: diis runs from iteration:   2
 @scfsetup: diis runs to iteration: 200
 @scfsetup: diis runs in every iteration
 @scfsetup: diiswatch is disabled                   
 @scfsetup: diis dtol criteria to switch on:      0.0000E+00
           (or the iteration number below is reached)
 @scfsetup: static damping scheme
            iteration step criteria to turn damping off: 3
 @scfsetup: dynamic level shifting
            tolarance in HOMO-LUMO gap:  0.200
            tolarance in density deviation:     0.0000E+00
            iteration step criteria to turn level shifting off: 8
 Allocation of 46.0 Gbytes of memory...
 ======================================================================
 ITERATION STEP   1
 CPU time [min]:     0.033                   Wall time [min]:     0.020
 

 SCF control                  : initial
 Damping factor/level shift   : 0.000/0.200
 DIIS [start/end/frequency]   :   2 /200 /  1

 Constructing Fock-matrix...
 
 Pipek-Mezey localization...
 Step  Convergence
   1   0.825724040346
   2   0.000273253186
   3   0.000001947061
   4   0.000000063158
   5   0.000000001179
 CPU time [min]:     0.058                   Wall time [min]:     0.020
 
 Constructing local fitting domains...
 Maximum number of atoms in fitting domains:    7
 Average number of atoms in fitting domains:    4.6
 
 First step of Coulomb + first step of exchange...
 Exchange contribution is evaluated for MOs 1 to 5.
   1% done.
  14% done.
  25% done.
  37% done.
  49% done.
  60% done.
  72% done.
  83% done.
 100% done.
 Fitting and assembly step of exchange...
 CPU time [min]:     0.146                   Wall time [min]:     0.022
 
 Second step of Coulomb...
   1% done.
  14% done.
  25% done.
  37% done.
  49% done.
  60% done.
  72% done.
  83% done.
 100% done.
 CPU time [min]:     0.171                   Wall time [min]:     0.022
 
 Gradient norm:      2.3664E+00
 RMS of [F,P]:                                         0.02510665785954
 RMS of difference density:                            0.00910219036586
 Gap [au]:  0.64746014
 ALPHA OCC:   5
 BETA  OCC:   5
 
 ***HARTREE-FOCK ENERGY IN STEP   1 IS        -55.8598424990558158 [AU]
 ======================================================================
 ITERATION STEP   2
 CPU time [min]:     0.183                   Wall time [min]:     0.022
 

 SCF control                  : diis
 Damping factor/level shift   : 0.000/0.000
 DIIS [start/end/frequency]   :   2 /200 /  1

 Constructing Fock-matrix...
 
 Pipek-Mezey localization...
 Step  Convergence
   1   0.010403824642
   2   0.009986323162
   3   0.000001532867
   4   0.000000001452
 CPU time [min]:     0.206                   Wall time [min]:     0.023
 
 Constructing local fitting domains...
 Maximum number of atoms in fitting domains:    7
 Average number of atoms in fitting domains:    4.6
 
 First step of Coulomb + first step of exchange...
 Exchange contribution is evaluated for MOs 1 to 5.
   1% done.
  14% done.
  25% done.
  37% done.
  49% done.
  60% done.
  72% done.
  83% done.
 100% done.
 Fitting and assembly step of exchange...
 CPU time [min]:     0.283                   Wall time [min]:     0.024
 
 Second step of Coulomb...
   1% done.
  14% done.
  25% done.
  37% done.
  49% done.
  60% done.
  72% done.
  83% done.
 100% done.
 CPU time [min]:     0.308                   Wall time [min]:     0.024
 
 Gradient norm:      3.2480E-01
 DIIS is running in this iteration step.
 RMS of [F,P]:                                         0.00536370976979
 RMS of difference density:                            0.00425637555804
 Gap [au]:  0.45737477
 ALPHA OCC:   5
 BETA  OCC:   5
 
 ***HARTREE-FOCK ENERGY IN STEP   2 IS        -56.1232747016687199 [AU]
 
 Step comparison  Energy Drift [au]  DIIS error drift  Gradient drift
        1            2.6343E-01         1.9743E-02       2.0416E+00
        2            5.6123E+01         1.0000E-09       2.0416E+00
 ======================================================================
 ITERATION STEP   3
 CPU time [min]:     0.323                   Wall time [min]:     0.025
 

 SCF control                  : diis
 Damping factor/level shift   : 0.000/0.000
 DIIS [start/end/frequency]   :   2 /200 /  1

 Constructing Fock-matrix...
 
 Pipek-Mezey localization...
 Step  Convergence
   1   0.010169152089
   2   0.009973302419
   3   0.000001212124
   4   0.000000000129
 CPU time [min]:     0.346                   Wall time [min]:     0.025
 
 Constructing local fitting domains...
 Local fitting domains are unchanged.
 
 First step of Coulomb + first step of exchange...
 Exchange contribution is evaluated for MOs 1 to 5.
   1% done.
  14% done.
  25% done.
  37% done.
  49% done.
  60% done.
  72% done.
  83% done.
 100% done.
 Fitting and assembly step of exchange...
 CPU time [min]:     0.418                   Wall time [min]:     0.026
 
 Second step of Coulomb...
   1% done.
  14% done.
  25% done.
  37% done.
  49% done.
  60% done.
  72% done.
  83% done.
 100% done.
 CPU time [min]:     0.443                   Wall time [min]:     0.027
 
 Gradient norm:      1.2588E-01
 DIIS is running in this iteration step.
 RMS of [F,P]:                                         0.00255879107490
 RMS of difference density:                            0.00128990874964
 Gap [au]:  0.51945387
 ALPHA OCC:   5
 BETA  OCC:   5
 
 ***HARTREE-FOCK ENERGY IN STEP   3 IS        -56.1425598383651447 [AU]
 
 Step comparison  Energy Drift [au]  DIIS error drift  Gradient drift
        2            1.9285E-02         2.8049E-03       1.9891E-01
 ======================================================================
 ITERATION STEP   4
 CPU time [min]:     0.458                   Wall time [min]:     0.027
 

 SCF control                  : diis
 Damping factor/level shift   : 0.000/0.000
 DIIS [start/end/frequency]   :   2 /200 /  1

 Constructing Fock-matrix...
 
 Pipek-Mezey localization...
 Step  Convergence
   1   0.019983774445
   2   0.019635693528
   3   0.000002012074
   4   0.000000000167
 CPU time [min]:     0.481                   Wall time [min]:     0.027
 
 Constructing local fitting domains...
 Local fitting domains are unchanged.
 
 First step of Coulomb + first step of exchange...
 Exchange contribution is evaluated for MOs 1 to 5.
   1% done.
  14% done.
  25% done.
  37% done.
  49% done.
  60% done.
  72% done.
  83% done.
 100% done.
 Fitting and assembly step of exchange...
 CPU time [min]:     0.554                   Wall time [min]:     0.028
 
 Second step of Coulomb...
   1% done.
  14% done.
  25% done.
  37% done.
  49% done.
  60% done.
  72% done.
  83% done.
 100% done.
 CPU time [min]:     0.578                   Wall time [min]:     0.029
 
 Gradient norm:      2.4256E-02
 DIIS is running in this iteration step.
 RMS of [F,P]:                                         0.00031666973015
 RMS of difference density:                            0.00032234214304
 Gap [au]:  0.51134202
 ALPHA OCC:   5
 BETA  OCC:   5
 
 ***HARTREE-FOCK ENERGY IN STEP   4 IS        -56.1478301222417855 [AU]
 
 Step comparison  Energy Drift [au]  DIIS error drift  Gradient drift
        3            5.2703E-03         2.2421E-03       1.0163E-01
 ======================================================================
 ITERATION STEP   5
 CPU time [min]:     0.594                   Wall time [min]:     0.029
 

 SCF control                  : diis
 Damping factor/level shift   : 0.000/0.000
 DIIS [start/end/frequency]   :   2 /200 /  1

 Constructing Fock-matrix...
 
 Pipek-Mezey localization...
 Step  Convergence
   1   0.040027531751
   2   0.039551483030
   3   0.000003894545
   4   0.000000000428
 CPU time [min]:     0.617                   Wall time [min]:     0.030
 
 Constructing local fitting domains...
 Local fitting domains are unchanged.
 
 First step of Coulomb + first step of exchange...
 Exchange contribution is evaluated for MOs 1 to 5.
   1% done.
  14% done.
  25% done.
  37% done.
  49% done.
  60% done.
  72% done.
  83% done.
 100% done.
 Fitting and assembly step of exchange...
 CPU time [min]:     0.689                   Wall time [min]:     0.031
 
 Second step of Coulomb...
   1% done.
  14% done.
  25% done.
  37% done.
  49% done.
  60% done.
  72% done.
  83% done.
 100% done.
 CPU time [min]:     0.714                   Wall time [min]:     0.031
 
 Gradient norm:      1.9563E-03
 DIIS is running in this iteration step.
 RMS of [F,P]:                                         0.00005287006662
 RMS of difference density:                            0.00004439166255
 Gap [au]:  0.51159588
 ALPHA OCC:   5
 BETA  OCC:   5
 
 ***HARTREE-FOCK ENERGY IN STEP   5 IS        -56.1479919962083898 [AU]
 
 Step comparison  Energy Drift [au]  DIIS error drift  Gradient drift
        4            1.6187E-04         2.6380E-04       2.2299E-02
 ======================================================================
 ITERATION STEP   6
 CPU time [min]:     0.729                   Wall time [min]:     0.031
 

 SCF control                  : diis
 Damping factor/level shift   : 0.000/0.000
 DIIS [start/end/frequency]   :   2 /200 /  1

 Constructing Fock-matrix...
 
 Pipek-Mezey localization...
 Step  Convergence
   1   0.040012851279
   2   0.039897157602
   3   0.000025776769
   4   0.000000145360
   5   0.000000000477
   6   0.000000000001
   7   0.000000000000
 CPU time [min]:     0.752                   Wall time [min]:     0.032
 
 Constructing local fitting domains...
 Local fitting domains are unchanged.
 
 First step of Coulomb + first step of exchange...
 Exchange contribution is evaluated for MOs 1 to 5.
   1% done.
  14% done.
  25% done.
  37% done.
  49% done.
  60% done.
  72% done.
  83% done.
 100% done.
 Fitting and assembly step of exchange...
 CPU time [min]:     0.824                   Wall time [min]:     0.033
 
 Second step of Coulomb...
   1% done.
  14% done.
  25% done.
  37% done.
  49% done.
  60% done.
  72% done.
  83% done.
 100% done.
 CPU time [min]:     0.849                   Wall time [min]:     0.033
 
 Gradient norm:      3.1294E-04
 DIIS is running in this iteration step.
 RMS of [F,P]:                                         0.00000557248716
 RMS of difference density:                            0.00000432733362
 Gap [au]:  0.51163603
 ALPHA OCC:   5
 BETA  OCC:   5
 
 ***HARTREE-FOCK ENERGY IN STEP   6 IS        -56.1479953650499013 [AU]
 
 Step comparison  Energy Drift [au]  DIIS error drift  Gradient drift
        5            3.3688E-06         4.7298E-05       1.6434E-03
 ======================================================================
 ITERATION STEP   7
 CPU time [min]:     0.864                   Wall time [min]:     0.034
 

 SCF control                  : diis
 Damping factor/level shift   : 0.000/0.000
 DIIS [start/end/frequency]   :   2 /200 /  1

 Constructing Fock-matrix...
 
 Pipek-Mezey localization...
 Step  Convergence
   1   0.055297572130
   2   0.054860476716
   3   0.000092849625
   4   0.000000248291
   5   0.000000000660
   6   0.000000000005
   7   0.000000000000
 CPU time [min]:     0.887                   Wall time [min]:     0.034
 
 Constructing local fitting domains...
 Local fitting domains are unchanged.
 
 First step of Coulomb + first step of exchange...
 Exchange contribution is evaluated for MOs 1 to 5.
   1% done.
  14% done.
  25% done.
  37% done.
  49% done.
  60% done.
  72% done.
  83% done.
 100% done.
 Fitting and assembly step of exchange...
 CPU time [min]:     0.960                   Wall time [min]:     0.035
 
 Second step of Coulomb...
   1% done.
  14% done.
  25% done.
  37% done.
  49% done.
  60% done.
  72% done.
  83% done.
 100% done.
 CPU time [min]:     0.985                   Wall time [min]:     0.036
 
 Gradient norm:      8.3866E-05
 DIIS is running in this iteration step.
 RMS of [F,P]:                                         0.00000093546998
 RMS of difference density:                            0.00000100972870
 Gap [au]:  0.51162320
 ALPHA OCC:   5
 BETA  OCC:   5
 
 ***HARTREE-FOCK ENERGY IN STEP   7 IS        -56.1479954035420690 [AU]
 
 Step comparison  Energy Drift [au]  DIIS error drift  Gradient drift
        6            3.8492E-08         4.6370E-06       2.2907E-04
 ======================================================================
 ITERATION STEP   8
 CPU time [min]:     1.000                   Wall time [min]:     0.036
 

 SCF control                  : diis
 Damping factor/level shift   : 0.000/0.000
 DIIS [start/end/frequency]   :   2 /200 /  1

 Constructing Fock-matrix...
 
 Pipek-Mezey localization...
 Step  Convergence
   1   0.045457739188
   2   0.043648674978
   3   0.000019632327
   4   0.000000080040
   5   0.000000000193
   6   0.000000000001
   7   0.000000000000
 CPU time [min]:     1.023                   Wall time [min]:     0.036
 
 Constructing local fitting domains...
 Local fitting domains are unchanged.
 
 First step of Coulomb + first step of exchange...
 Exchange contribution is evaluated for MOs 1 to 5.
   1% done.
  14% done.
  25% done.
  37% done.
  49% done.
  60% done.
  72% done.
  83% done.
 100% done.
 Fitting and assembly step of exchange...
 CPU time [min]:     1.095                   Wall time [min]:     0.037
 
 Second step of Coulomb...
   1% done.
  14% done.
  25% done.
  37% done.
  49% done.
  60% done.
  72% done.
  83% done.
 100% done.
 CPU time [min]:     1.120                   Wall time [min]:     0.038
 
 Gradient norm:      1.1282E-05
 DIIS is running in this iteration step.
 RMS of [F,P]:                                         0.00000017997384
 RMS of difference density:                            0.00000030288481
 Gap [au]:  0.51161857
 ALPHA OCC:   5
 BETA  OCC:   5
 
 ***HARTREE-FOCK ENERGY IN STEP   8 IS        -56.1479954053640427 [AU]
 
 Step comparison  Energy Drift [au]  DIIS error drift  Gradient drift
        7            1.8220E-09         7.5550E-07       7.2585E-05
 ======================================================================
 ITERATION STEP   9
 CPU time [min]:     1.135                   Wall time [min]:     0.038
 

 SCF control                  : diis
 Damping factor/level shift   : 0.000/0.000
 DIIS [start/end/frequency]   :   2 /200 /  1

 Constructing Fock-matrix...
 
 Pipek-Mezey localization...
 Step  Convergence
   1   0.045426109998
   2   0.045715001462
   3   0.000071622785
   4   0.000000432660
   5   0.000000003937
   6   0.000000000020
   7   0.000000000000
 CPU time [min]:     1.158                   Wall time [min]:     0.039
 
 Constructing local fitting domains...
 Local fitting domains are unchanged.
 
 First step of Coulomb + first step of exchange...
 Exchange contribution is evaluated for MOs 1 to 5.
   1% done.
  14% done.
  25% done.
  37% done.
  49% done.
  60% done.
  72% done.
  83% done.
 100% done.
 Fitting and assembly step of exchange...
 CPU time [min]:     1.231                   Wall time [min]:     0.040
 
 Second step of Coulomb...
   1% done.
  14% done.
  25% done.
  37% done.
  49% done.
  60% done.
  72% done.
  83% done.
 100% done.
 CPU time [min]:     1.255                   Wall time [min]:     0.040
 
 Gradient norm:      2.4716E-06
 DIIS is running in this iteration step.
 RMS of [F,P]:                                         0.00000003044936
 RMS of difference density:                            0.00000008674045
 Gap [au]:  0.51161822
 ALPHA OCC:   5
 BETA  OCC:   5
 
 ***HARTREE-FOCK ENERGY IN STEP   9 IS        -56.1479954054583956 [AU]
 
 Step comparison  Energy Drift [au]  DIIS error drift  Gradient drift
        8            9.4353E-11         1.4952E-07       8.8100E-06
 ======================================================================
 ITERATION STEP  10
 CPU time [min]:     1.270                   Wall time [min]:     0.040
 

 SCF control                  : diis
 Damping factor/level shift   : 0.000/0.000
 DIIS [start/end/frequency]   :   2 /200 /  1

 Constructing Fock-matrix...
 
 Pipek-Mezey localization...
 Step  Convergence
   1   0.045719039479
   2   0.043816038450
   3   0.000003550092
   4   0.000000001866
   5   0.000000000011
   6   0.000000000000
 CPU time [min]:     1.293                   Wall time [min]:     0.041
 
 Constructing local fitting domains...
 Local fitting domains are unchanged.
 
 First step of Coulomb + first step of exchange...
 Exchange contribution is evaluated for MOs 1 to 5.
   1% done.
  14% done.
  25% done.
  37% done.
  49% done.
  60% done.
  72% done.
  83% done.
 100% done.
 Fitting and assembly step of exchange...
 CPU time [min]:     1.366                   Wall time [min]:     0.042
 
 Second step of Coulomb...
   1% done.
  14% done.
  25% done.
  37% done.
  49% done.
  60% done.
  72% done.
  83% done.
 100% done.
 CPU time [min]:     1.391                   Wall time [min]:     0.042
 
 Gradient norm:      5.4973E-07
 DIIS is running in this iteration step.
 RMS of [F,P]:                                         0.00000000743332
 RMS of difference density:                            0.00000002442851
 Gap [au]:  0.51161824
 ALPHA OCC:   5
 BETA  OCC:   5
 
 ***HARTREE-FOCK ENERGY IN STEP  10 IS        -56.1479954054625452 [AU]
 
 Step comparison  Energy Drift [au]  DIIS error drift  Gradient drift
        9            4.1496E-12         2.3016E-08       1.9219E-06
 ======================================================================
 ITERATION STEP  11
 CPU time [min]:     1.406                   Wall time [min]:     0.043
 

 SCF control                  : diis
 Damping factor/level shift   : 0.000/0.000
 DIIS [start/end/frequency]   :   2 /200 /  1

 Constructing Fock-matrix...
 
 Pipek-Mezey localization...
 Step  Convergence
   1   0.055314024144
   2   0.052875349837
   3   0.000072187359
   4   0.000000160437
   5   0.000000000200
   6   0.000000000000
 CPU time [min]:     1.429                   Wall time [min]:     0.043
 
 Constructing local fitting domains...
 Local fitting domains are unchanged.
 
 First step of Coulomb + first step of exchange...
 Exchange contribution is evaluated for MOs 1 to 5.
   1% done.
  14% done.
  25% done.
  37% done.
  49% done.
  60% done.
  72% done.
  83% done.
 100% done.
 Fitting and assembly step of exchange...
 CPU time [min]:     1.502                   Wall time [min]:     0.044
 
 Second step of Coulomb...
   1% done.
  14% done.
  25% done.
  37% done.
  49% done.
  60% done.
  72% done.
  83% done.
 100% done.
 CPU time [min]:     1.526                   Wall time [min]:     0.045
 
 Gradient norm:      5.0112E-08
 DIIS is running in this iteration step.
 RMS of [F,P]:                                         0.00000000071224
 RMS of difference density:                            0.00000000143490
 Gap [au]:  0.51161826
 ALPHA OCC:   5
 BETA  OCC:   5
 
 ***HARTREE-FOCK ENERGY IN STEP  11 IS        -56.1479954054627939 [AU]
 
 Step comparison  Energy Drift [au]  DIIS error drift  Gradient drift
       10            2.4869E-13         6.7211E-09       4.9962E-07
 ======================================================================
 ITERATION STEP  12
 CPU time [min]:     1.541                   Wall time [min]:     0.045
 

 SCF control                  : diis
 Damping factor/level shift   : 0.000/0.000
 DIIS [start/end/frequency]   :   2 /200 /  1

 Constructing Fock-matrix...
 
 Pipek-Mezey localization...
 Step  Convergence
   1   0.055269128995
   2   0.057060334759
   3   0.000082463454
   4   0.000000206819
   5   0.000000000214
   6   0.000000000000
 CPU time [min]:     1.565                   Wall time [min]:     0.045
 
 Constructing local fitting domains...
 Local fitting domains are unchanged.
 
 First step of Coulomb + first step of exchange...
 Exchange contribution is evaluated for MOs 1 to 5.
   1% done.
  14% done.
  25% done.
  37% done.
  49% done.
  60% done.
  72% done.
  83% done.
 100% done.
 Fitting and assembly step of exchange...
 CPU time [min]:     1.636                   Wall time [min]:     0.046
 
 Second step of Coulomb...
   1% done.
  14% done.
  25% done.
  37% done.
  49% done.
  60% done.
  72% done.
  83% done.
 100% done.
 CPU time [min]:     1.661                   Wall time [min]:     0.047
 
 Gradient norm:      3.9907E-09
 DIIS is running in this iteration step.
 RMS of [F,P]:                                         0.00000000007013
 RMS of difference density:                            0.00000000008328
 Gap [au]:  0.51161826
 ALPHA OCC:   5
 BETA  OCC:   5
 
 ***HARTREE-FOCK ENERGY IN STEP  12 IS        -56.1479954054627655 [AU]
 
 Step comparison  Energy Drift [au]  DIIS error drift  Gradient drift
       11           -2.8422E-14         6.4211E-10       4.6122E-08
 Warning! The energy goes uphill (with respect to previous step).
 
 The SCF iteration has converged.
 An extra iteration will be performed to calculate accurate SCF energy.
 
 ======================================================================
 ITERATION STEP  13
 CPU time [min]:     1.677                   Wall time [min]:     0.047
 

 SCF control                  : diis
 Damping factor/level shift   : 0.000/0.000
 DIIS [start/end/frequency]   :   2 /200 /  1

 Constructing Fock-matrix...
 
 Pipek-Mezey localization...
 Step  Convergence
   1   0.045426438388
   2   0.045756399547
   3   0.000019528741
   4   0.000000002357
   5   0.000000000003
   6   0.000000000000
 CPU time [min]:     1.701                   Wall time [min]:     0.048
 
 Constructing local fitting domains...
 Maximum number of atoms in fitting domains:   12
 Average number of atoms in fitting domains:    8.8
 
 First step of Coulomb + first step of exchange...
 Exchange contribution is evaluated for MOs 1 to 5.
   1% done.
  14% done.
  25% done.
  37% done.
  49% done.
  60% done.
  72% done.
  83% done.
 100% done.
 Fitting and assembly step of exchange...
 CPU time [min]:     1.782                   Wall time [min]:     0.049
 
 Second step of Coulomb...
   1% done.
  14% done.
  25% done.
  37% done.
  49% done.
  60% done.
  72% done.
  83% done.
 100% done.
 CPU time [min]:     1.807                   Wall time [min]:     0.049
 
 Gradient norm:      1.5213E-06
 RMS of [F,P]:                                         0.00000003870689
 RMS of difference density:                            0.00000006073001
 Gap [au]:  0.51161451
 ALPHA OCC:   5
 BETA  OCC:   5
 
 ***HARTREE-FOCK ENERGY IN STEP  13 IS        -56.1479955971888671 [AU]
 
 Step comparison  Energy Drift [au]  DIIS error drift  Gradient drift
       12            1.9173E-07        -3.8637E-08      -1.5173E-06
 Warning! The DIIS error goes uphill (with respect to previous step).
 Warning! The DIIS error goes uphill (with respect to step  12 ).
 Warning! The gradient goes uphill (with respect to previous step).
 Warning! The gradient goes uphill (with respect to step  12 ).
 ======================================================================
 
 SUCCESS...
 THE SCF ITERATION HAS CONVERGED!
 
                   A   
 FINAL ALPHA OCC:   5
 FINAL BETA  OCC:   5
 
 ***FINAL HARTREE-FOCK ENERGY:        -56.1479955971888671 [AU]
 
 Orbital energies [au]:
      Irrep         Alpha          Beta
    1   A        -15.539719     -15.539719
    2   A         -1.111559      -1.111559
    3   A         -0.615500      -0.615500
    4   A         -0.615404      -0.615404
    5   A         -0.418832      -0.418832
 
    6   A          0.092782       0.092782
    7   A          0.134113       0.134113
    8   A          0.189198       0.189198
    9   A          0.221259       0.221259
   10   A          0.238459       0.238459
   11   A          0.258026       0.258026
   12   A          0.269578       0.269578
   13   A          0.298390       0.298390
   14   A          0.312802       0.312802
   15   A          0.452702       0.452702
   16   A          0.516086       0.516086
   17   A          0.590122       0.590122
   18   A          0.646277       0.646277
   19   A          0.692036       0.692036
   20   A          0.715408       0.715408
   21   A          0.722881       0.722881
   22   A          0.747338       0.747338
   23   A          0.750897       0.750897
   24   A          0.788089       0.788089
   25   A          0.888815       0.888815
   26   A          0.994261       0.994261
   27   A          1.093881       1.093881
   28   A          1.112985       1.112985
   29   A          1.225179       1.225179
   30   A          1.456194       1.456194
   31   A          1.458447       1.458447
   32   A          1.559369       1.559369
   33   A          1.569539       1.569539
   34   A          1.577703       1.577703
   35   A          1.588233       1.588233
   36   A          1.622109       1.622109
   37   A          1.659405       1.659405
   38   A          1.770764       1.770764
   39   A          1.790098       1.790098
   40   A          1.867935       1.867935
   41   A          1.959306       1.959306
   42   A          1.962275       1.962275
   43   A          1.967469       1.967469
   44   A          1.971599       1.971599
   45   A          1.997287       1.997287
   46   A          2.073901       2.073901
   47   A          2.099132       2.099132
   48   A          2.270706       2.270706
   49   A          2.273056       2.273056
   50   A          2.382711       2.382711
   51   A          2.417289       2.417289
   52   A          2.439047       2.439047
   53   A          2.443978       2.443978
   54   A          2.459121       2.459121
   55   A          2.465913       2.465913
   56   A          2.468886       2.468886
   57   A          2.484907       2.484907
   58   A          2.485906       2.485906
   59   A          2.496038       2.496038
   60   A          2.510663       2.510663
   61   A          2.562165       2.562165
   62   A          2.767582       2.767582
   63   A          3.032695       3.032695
   64   A          3.112305       3.112305
   65   A          3.157367       3.157367
   66   A          3.163159       3.163159
   67   A          3.268493       3.268493
   68   A          3.692636       3.692636
   69   A          3.706497       3.706497
   70   A          4.011316       4.011316
   71   A          4.012488       4.012488
   72   A          4.023478       4.023478
   73   A          4.032145       4.032145
   74   A          4.052810       4.052810
   75   A          4.068818       4.068818
   76   A          4.148613       4.148613
   77   A          4.152176       4.152176
   78   A          4.152549       4.152549
   79   A          4.155692       4.155692
   80   A          4.892679       4.892679
   81   A          4.932305       4.932305
   82   A          6.040220       6.040220
   83   A          6.043368       6.043368
   84   A          6.045289       6.045289
   85   A          6.051256       6.051256
   86   A         26.598250      26.598250
   87   A         26.629805      26.629805
 
 RETURNING FROM SCF ALGORITHM
 ======================================================================

 ************************ 2026-02-26 21:26:28 *************************
 Executing integ...

 Allocation of 46.0 Gbytes of memory...
 
 
 Number of atoms:                 12
 Charge:                           0
 Number of electrons:             10
 Number of core electrons:         2
 Spin multiplicity:                1
 
                 Cartesian coordinates [bohr]      Atomic mass [AMU]  Z
   1  N     1.97420664    1.97415541    1.97424640     0.000000       0
   2  H     3.51863349    2.63865391    1.00653002     0.000000       0
   3  H     2.63877653    1.00647336    3.51882825     0.000000       0
   4  H     1.00639751    3.51850532    2.63869260     0.000000       0
   5  N     6.82182577    2.87346447    7.72099687     0.000000       0
   6  H     8.36625160    2.20896759    8.68871146     0.000000       0
   7  H     7.48639849    3.84114800    6.17641118     0.000000       0
   8  H     5.85401804    1.32911599    7.05654762     0.000000       0
   9  N     7.72105127    6.82177201   12.56860613    14.003074       7
  10  H     7.05646455    5.85409719   11.02403942     1.007825       1
  11  H     8.68882825    8.36611725   11.90418158     1.007825       1
  12  H     6.17659278    7.48627216   13.53633668     1.007825       1
 
 This molecule is an asymmetric top.
 
 Point group: C1  
 Computational point group: C1  
 
 Cartesian coordinates in standard orientation [bohr]
   1  N   -11.32786708    1.02997981   -0.10644912
   2  H   -11.23240140    0.17993112   -1.84759560
   3  H   -10.22848380   -0.01564496    1.10260837
   4  H   -10.49553452    2.77420167   -0.27399771
   5  N    -4.37915060   -1.95296745    0.28171825
   6  H    -3.27869589   -3.53054484    0.53376538
   7  H    -4.96392791   -1.95195715   -1.56810546
   8  H    -5.96090412   -2.17592605    1.38240081
   9  N     1.62169322    0.00429534    0.04496870
  10  H    -0.31159387   -0.14319808    0.11132473
  11  H     2.12022769    0.16425580   -1.82289920
  12  H     2.09886788    1.67368669    0.91033092
 
 Nuclear repulsion energy [au]:         11.785807877699
 
 
 Basis set information:
 
 Maximum angular momentum: g
 Maximum number of contracted Gaussians:   11
 Maximum number of primitive Gaussians:    14
 Spherical harmonic GTOs are used.
 
 
 Conventional basis set:
 
   1  N  aug-cc-pvdz [ 10s 5p 2d | 4s 3p 2d ]
   2  H  aug-cc-pvdz [ 5s 2p | 3s 2p ]
   3  H  aug-cc-pvdz [ 5s 2p | 3s 2p ]
   4  H  aug-cc-pvdz [ 5s 2p | 3s 2p ]
   5  N  aug-cc-pvdz [ 10s 5p 2d | 4s 3p 2d ]
   6  H  aug-cc-pvdz [ 5s 2p | 3s 2p ]
   7  H  aug-cc-pvdz [ 5s 2p | 3s 2p ]
   8  H  aug-cc-pvdz [ 5s 2p | 3s 2p ]
   9  N  aug-cc-pvdz [ 10s 5p 2d | 4s 3p 2d ]
  10  H  aug-cc-pvdz [ 5s 2p | 3s 2p ]
  11  H  aug-cc-pvdz [ 5s 2p | 3s 2p ]
  12  H  aug-cc-pvdz [ 5s 2p | 3s 2p ]
 
 Basis functions:
            1             2             3             4             5             6             7             8             9            10
    0    1N1s          1N2s          1N3s          1N4s          1N1pz         1N1py         1N1px         1N2pz         1N2py         1N2px     
    1    1N3pz         1N3py         1N3px         1N1d-2        1N1d-1        1N1d0         1N1d+1        1N1d+2        1N2d-2        1N2d-1    
    2    1N2d0         1N2d+1        1N2d+2        2H1s          2H2s          2H3s          2H1pz         2H1py         2H1px         2H2pz     
    3    2H2py         2H2px         3H1s          3H2s          3H3s          3H1pz         3H1py         3H1px         3H2pz         3H2py     
    4    3H2px         4H1s          4H2s          4H3s          4H1pz         4H1py         4H1px         4H2pz         4H2py         4H2px     
    5    5N1s          5N2s          5N3s          5N4s          5N1pz         5N1py         5N1px         5N2pz         5N2py         5N2px     
    6    5N3pz         5N3py         5N3px         5N1d-2        5N1d-1        5N1d0         5N1d+1        5N1d+2        5N2d-2        5N2d-1    
    7    5N2d0         5N2d+1        5N2d+2        6H1s          6H2s          6H3s          6H1pz         6H1py         6H1px         6H2pz     
    8    6H2py         6H2px         7H1s          7H2s          7H3s          7H1pz         7H1py         7H1px         7H2pz         7H2py     
    9    7H2px         8H1s          8H2s          8H3s          8H1pz         8H1py         8H1px         8H2pz         8H2py         8H2px     
   10    9N1s          9N2s          9N3s          9N4s          9N1pz         9N1py         9N1px         9N2pz         9N2py         9N2px     
   11    9N3pz         9N3py         9N3px         9N1d-2        9N1d-1        9N1d0         9N1d+1        9N1d+2        9N2d-2        9N2d-1    
   12    9N2d0         9N2d+1        9N2d+2       10H1s         10H2s         10H3s         10H1pz        10H1py        10H1px        10H2pz     
   13   10H2py        10H2px        11H1s         11H2s         11H3s         11H1pz        11H1py        11H1px        11H2pz        11H2py     
   14   11H2px        12H1s         12H2s         12H3s         12H1pz        12H1py        12H1px        12H2pz        12H2py        12H2px     
 
 Maximum number of basis functions per shell:   10
 Total number of basis functions:    150
 
 
 Fitting basis set for the SCF calculation:
 
   1  N  aug-cc-pvdz-ri-jk [ 11s 8p 6d 3f | 11s 8p 6d 3f ]
   2  H  aug-cc-pvdz-ri-jk [ 5s 4p 3d | 5s 4p 3d ]
   3  H  aug-cc-pvdz-ri-jk [ 5s 4p 3d | 5s 4p 3d ]
   4  H  aug-cc-pvdz-ri-jk [ 5s 4p 3d | 5s 4p 3d ]
   5  N  aug-cc-pvdz-ri-jk [ 11s 8p 6d 3f | 11s 8p 6d 3f ]
   6  H  aug-cc-pvdz-ri-jk [ 5s 4p 3d | 5s 4p 3d ]
   7  H  aug-cc-pvdz-ri-jk [ 5s 4p 3d | 5s 4p 3d ]
   8  H  aug-cc-pvdz-ri-jk [ 5s 4p 3d | 5s 4p 3d ]
   9  N  aug-cc-pvdz-ri-jk [ 11s 8p 6d 3f | 11s 8p 6d 3f ]
  10  H  aug-cc-pvdz-ri-jk [ 5s 4p 3d | 5s 4p 3d ]
  11  H  aug-cc-pvdz-ri-jk [ 5s 4p 3d | 5s 4p 3d ]
  12  H  aug-cc-pvdz-ri-jk [ 5s 4p 3d | 5s 4p 3d ]
 
 Basis functions:
            1             2             3             4             5             6             7             8             9            10
    0    1N1s          1N2s          1N3s          1N4s          1N5s          1N6s          1N7s          1N8s          1N9s          1N10s     
    1    1N11s         1N1pz         1N1py         1N1px         1N2pz         1N2py         1N2px         1N3pz         1N3py         1N3px     
    2    1N4pz         1N4py         1N4px         1N5pz         1N5py         1N5px         1N6pz         1N6py         1N6px         1N7pz     
    3    1N7py         1N7px         1N8pz         1N8py         1N8px         1N1d-2        1N1d-1        1N1d0         1N1d+1        1N1d+2    
    4    1N2d-2        1N2d-1        1N2d0         1N2d+1        1N2d+2        1N3d-2        1N3d-1        1N3d0         1N3d+1        1N3d+2    
    5    1N4d-2        1N4d-1        1N4d0         1N4d+1        1N4d+2        1N5d-2        1N5d-1        1N5d0         1N5d+1        1N5d+2    
    6    1N6d-2        1N6d-1        1N6d0         1N6d+1        1N6d+2        1N1f-3        1N1f-2        1N1f-1        1N1f0         1N1f+1    
    7    1N1f+2        1N1f+3        1N2f-3        1N2f-2        1N2f-1        1N2f0         1N2f+1        1N2f+2        1N2f+3        1N3f-3    
    8    1N3f-2        1N3f-1        1N3f0         1N3f+1        1N3f+2        1N3f+3        2H1s          2H2s          2H3s          2H4s      
    9    2H5s          2H1pz         2H1py         2H1px         2H2pz         2H2py         2H2px         2H3pz         2H3py         2H3px     
   10    2H4pz         2H4py         2H4px         2H1d-2        2H1d-1        2H1d0         2H1d+1        2H1d+2        2H2d-2        2H2d-1    
   11    2H2d0         2H2d+1        2H2d+2        2H3d-2        2H3d-1        2H3d0         2H3d+1        2H3d+2        3H1s          3H2s      
   12    3H3s          3H4s          3H5s          3H1pz         3H1py         3H1px         3H2pz         3H2py         3H2px         3H3pz     
   13    3H3py         3H3px         3H4pz         3H4py         3H4px         3H1d-2        3H1d-1        3H1d0         3H1d+1        3H1d+2    
   14    3H2d-2        3H2d-1        3H2d0         3H2d+1        3H2d+2        3H3d-2        3H3d-1        3H3d0         3H3d+1        3H3d+2    
   15    4H1s          4H2s          4H3s          4H4s          4H5s          4H1pz         4H1py         4H1px         4H2pz         4H2py     
   16    4H2px         4H3pz         4H3py         4H3px         4H4pz         4H4py         4H4px         4H1d-2        4H1d-1        4H1d0     
   17    4H1d+1        4H1d+2        4H2d-2        4H2d-1        4H2d0         4H2d+1        4H2d+2        4H3d-2        4H3d-1        4H3d0     
   18    4H3d+1        4H3d+2        5N1s          5N2s          5N3s          5N4s          5N5s          5N6s          5N7s          5N8s      
   19    5N9s          5N10s         5N11s         5N1pz         5N1py         5N1px         5N2pz         5N2py         5N2px         5N3pz     
   20    5N3py         5N3px         5N4pz         5N4py         5N4px         5N5pz         5N5py         5N5px         5N6pz         5N6py     
   21    5N6px         5N7pz         5N7py         5N7px         5N8pz         5N8py         5N8px         5N1d-2        5N1d-1        5N1d0     
   22    5N1d+1        5N1d+2        5N2d-2        5N2d-1        5N2d0         5N2d+1        5N2d+2        5N3d-2        5N3d-1        5N3d0     
   23    5N3d+1        5N3d+2        5N4d-2        5N4d-1        5N4d0         5N4d+1        5N4d+2        5N5d-2        5N5d-1        5N5d0     
   24    5N5d+1        5N5d+2        5N6d-2        5N6d-1        5N6d0         5N6d+1        5N6d+2        5N1f-3        5N1f-2        5N1f-1    
   25    5N1f0         5N1f+1        5N1f+2        5N1f+3        5N2f-3        5N2f-2        5N2f-1        5N2f0         5N2f+1        5N2f+2    
   26    5N2f+3        5N3f-3        5N3f-2        5N3f-1        5N3f0         5N3f+1        5N3f+2        5N3f+3        6H1s          6H2s      
   27    6H3s          6H4s          6H5s          6H1pz         6H1py         6H1px         6H2pz         6H2py         6H2px         6H3pz     
   28    6H3py         6H3px         6H4pz         6H4py         6H4px         6H1d-2        6H1d-1        6H1d0         6H1d+1        6H1d+2    
   29    6H2d-2        6H2d-1        6H2d0         6H2d+1        6H2d+2        6H3d-2        6H3d-1        6H3d0         6H3d+1        6H3d+2    
   30    7H1s          7H2s          7H3s          7H4s          7H5s          7H1pz         7H1py         7H1px         7H2pz         7H2py     
   31    7H2px         7H3pz         7H3py         7H3px         7H4pz         7H4py         7H4px         7H1d-2        7H1d-1        7H1d0     
   32    7H1d+1        7H1d+2        7H2d-2        7H2d-1        7H2d0         7H2d+1        7H2d+2        7H3d-2        7H3d-1        7H3d0     
   33    7H3d+1        7H3d+2        8H1s          8H2s          8H3s          8H4s          8H5s          8H1pz         8H1py         8H1px     
   34    8H2pz         8H2py         8H2px         8H3pz         8H3py         8H3px         8H4pz         8H4py         8H4px         8H1d-2    
   35    8H1d-1        8H1d0         8H1d+1        8H1d+2        8H2d-2        8H2d-1        8H2d0         8H2d+1        8H2d+2        8H3d-2    
   36    8H3d-1        8H3d0         8H3d+1        8H3d+2        9N1s          9N2s          9N3s          9N4s          9N5s          9N6s      
   37    9N7s          9N8s          9N9s          9N10s         9N11s         9N1pz         9N1py         9N1px         9N2pz         9N2py     
   38    9N2px         9N3pz         9N3py         9N3px         9N4pz         9N4py         9N4px         9N5pz         9N5py         9N5px     
   39    9N6pz         9N6py         9N6px         9N7pz         9N7py         9N7px         9N8pz         9N8py         9N8px         9N1d-2    
   40    9N1d-1        9N1d0         9N1d+1        9N1d+2        9N2d-2        9N2d-1        9N2d0         9N2d+1        9N2d+2        9N3d-2    
   41    9N3d-1        9N3d0         9N3d+1        9N3d+2        9N4d-2        9N4d-1        9N4d0         9N4d+1        9N4d+2        9N5d-2    
   42    9N5d-1        9N5d0         9N5d+1        9N5d+2        9N6d-2        9N6d-1        9N6d0         9N6d+1        9N6d+2        9N1f-3    
   43    9N1f-2        9N1f-1        9N1f0         9N1f+1        9N1f+2        9N1f+3        9N2f-3        9N2f-2        9N2f-1        9N2f0     
   44    9N2f+1        9N2f+2        9N2f+3        9N3f-3        9N3f-2        9N3f-1        9N3f0         9N3f+1        9N3f+2        9N3f+3    
   45   10H1s         10H2s         10H3s         10H4s         10H5s         10H1pz        10H1py        10H1px        10H2pz        10H2py     
   46   10H2px        10H3pz        10H3py        10H3px        10H4pz        10H4py        10H4px        10H1d-2       10H1d-1       10H1d0     
   47   10H1d+1       10H1d+2       10H2d-2       10H2d-1       10H2d0        10H2d+1       10H2d+2       10H3d-2       10H3d-1       10H3d0     
   48   10H3d+1       10H3d+2       11H1s         11H2s         11H3s         11H4s         11H5s         11H1pz        11H1py        11H1px     
   49   11H2pz        11H2py        11H2px        11H3pz        11H3py        11H3px        11H4pz        11H4py        11H4px        11H1d-2    
   50   11H1d-1       11H1d0        11H1d+1       11H1d+2       11H2d-2       11H2d-1       11H2d0        11H2d+1       11H2d+2       11H3d-2    
   51   11H3d-1       11H3d0        11H3d+1       11H3d+2       12H1s         12H2s         12H3s         12H4s         12H5s         12H1pz     
   52   12H1py        12H1px        12H2pz        12H2py        12H2px        12H3pz        12H3py        12H3px        12H4pz        12H4py     
   53   12H4px        12H1d-2       12H1d-1       12H1d0        12H1d+1       12H1d+2       12H2d-2       12H2d-1       12H2d0        12H2d+1    
   54   12H2d+2       12H3d-2       12H3d-1       12H3d0        12H3d+1       12H3d+2    
 
 Maximum number of basis functions per shell:   30
 Total number of basis functions:    546
 
 
 Fitting basis set for the correlation calculation:
 
   1  N  aug-cc-pvdz-ri [ 8s 6p 5d 3f | 8s 6p 5d 3f ]
   2  H  aug-cc-pvdz-ri [ 4s 3p 2d | 4s 3p 2d ]
   3  H  aug-cc-pvdz-ri [ 4s 3p 2d | 4s 3p 2d ]
   4  H  aug-cc-pvdz-ri [ 4s 3p 2d | 4s 3p 2d ]
   5  N  aug-cc-pvdz-ri [ 8s 6p 5d 3f | 8s 6p 5d 3f ]
   6  H  aug-cc-pvdz-ri [ 4s 3p 2d | 4s 3p 2d ]
   7  H  aug-cc-pvdz-ri [ 4s 3p 2d | 4s 3p 2d ]
   8  H  aug-cc-pvdz-ri [ 4s 3p 2d | 4s 3p 2d ]
   9  N  aug-cc-pvdz-ri [ 8s 6p 5d 3f | 8s 6p 5d 3f ]
  10  H  aug-cc-pvdz-ri [ 4s 3p 2d | 4s 3p 2d ]
  11  H  aug-cc-pvdz-ri [ 4s 3p 2d | 4s 3p 2d ]
  12  H  aug-cc-pvdz-ri [ 4s 3p 2d | 4s 3p 2d ]
 
 Basis functions:
            1             2             3             4             5             6             7             8             9            10
    0    1N1s          1N2s          1N3s          1N4s          1N5s          1N6s          1N7s          1N8s          1N1pz         1N1py     
    1    1N1px         1N2pz         1N2py         1N2px         1N3pz         1N3py         1N3px         1N4pz         1N4py         1N4px     
    2    1N5pz         1N5py         1N5px         1N6pz         1N6py         1N6px         1N1d-2        1N1d-1        1N1d0         1N1d+1    
    3    1N1d+2        1N2d-2        1N2d-1        1N2d0         1N2d+1        1N2d+2        1N3d-2        1N3d-1        1N3d0         1N3d+1    
    4    1N3d+2        1N4d-2        1N4d-1        1N4d0         1N4d+1        1N4d+2        1N5d-2        1N5d-1        1N5d0         1N5d+1    
    5    1N5d+2        1N1f-3        1N1f-2        1N1f-1        1N1f0         1N1f+1        1N1f+2        1N1f+3        1N2f-3        1N2f-2    
    6    1N2f-1        1N2f0         1N2f+1        1N2f+2        1N2f+3        1N3f-3        1N3f-2        1N3f-1        1N3f0         1N3f+1    
    7    1N3f+2        1N3f+3        2H1s          2H2s          2H3s          2H4s          2H1pz         2H1py         2H1px         2H2pz     
    8    2H2py         2H2px         2H3pz         2H3py         2H3px         2H1d-2        2H1d-1        2H1d0         2H1d+1        2H1d+2    
    9    2H2d-2        2H2d-1        2H2d0         2H2d+1        2H2d+2        3H1s          3H2s          3H3s          3H4s          3H1pz     
   10    3H1py         3H1px         3H2pz         3H2py         3H2px         3H3pz         3H3py         3H3px         3H1d-2        3H1d-1    
   11    3H1d0         3H1d+1        3H1d+2        3H2d-2        3H2d-1        3H2d0         3H2d+1        3H2d+2        4H1s          4H2s      
   12    4H3s          4H4s          4H1pz         4H1py         4H1px         4H2pz         4H2py         4H2px         4H3pz         4H3py     
   13    4H3px         4H1d-2        4H1d-1        4H1d0         4H1d+1        4H1d+2        4H2d-2        4H2d-1        4H2d0         4H2d+1    
   14    4H2d+2        5N1s          5N2s          5N3s          5N4s          5N5s          5N6s          5N7s          5N8s          5N1pz     
   15    5N1py         5N1px         5N2pz         5N2py         5N2px         5N3pz         5N3py         5N3px         5N4pz         5N4py     
   16    5N4px         5N5pz         5N5py         5N5px         5N6pz         5N6py         5N6px         5N1d-2        5N1d-1        5N1d0     
   17    5N1d+1        5N1d+2        5N2d-2        5N2d-1        5N2d0         5N2d+1        5N2d+2        5N3d-2        5N3d-1        5N3d0     
   18    5N3d+1        5N3d+2        5N4d-2        5N4d-1        5N4d0         5N4d+1        5N4d+2        5N5d-2        5N5d-1        5N5d0     
   19    5N5d+1        5N5d+2        5N1f-3        5N1f-2        5N1f-1        5N1f0         5N1f+1        5N1f+2        5N1f+3        5N2f-3    
   20    5N2f-2        5N2f-1        5N2f0         5N2f+1        5N2f+2        5N2f+3        5N3f-3        5N3f-2        5N3f-1        5N3f0     
   21    5N3f+1        5N3f+2        5N3f+3        6H1s          6H2s          6H3s          6H4s          6H1pz         6H1py         6H1px     
   22    6H2pz         6H2py         6H2px         6H3pz         6H3py         6H3px         6H1d-2        6H1d-1        6H1d0         6H1d+1    
   23    6H1d+2        6H2d-2        6H2d-1        6H2d0         6H2d+1        6H2d+2        7H1s          7H2s          7H3s          7H4s      
   24    7H1pz         7H1py         7H1px         7H2pz         7H2py         7H2px         7H3pz         7H3py         7H3px         7H1d-2    
   25    7H1d-1        7H1d0         7H1d+1        7H1d+2        7H2d-2        7H2d-1        7H2d0         7H2d+1        7H2d+2        8H1s      
   26    8H2s          8H3s          8H4s          8H1pz         8H1py         8H1px         8H2pz         8H2py         8H2px         8H3pz     
   27    8H3py         8H3px         8H1d-2        8H1d-1        8H1d0         8H1d+1        8H1d+2        8H2d-2        8H2d-1        8H2d0     
   28    8H2d+1        8H2d+2        9N1s          9N2s          9N3s          9N4s          9N5s          9N6s          9N7s          9N8s      
   29    9N1pz         9N1py         9N1px         9N2pz         9N2py         9N2px         9N3pz         9N3py         9N3px         9N4pz     
   30    9N4py         9N4px         9N5pz         9N5py         9N5px         9N6pz         9N6py         9N6px         9N1d-2        9N1d-1    
   31    9N1d0         9N1d+1        9N1d+2        9N2d-2        9N2d-1        9N2d0         9N2d+1        9N2d+2        9N3d-2        9N3d-1    
   32    9N3d0         9N3d+1        9N3d+2        9N4d-2        9N4d-1        9N4d0         9N4d+1        9N4d+2        9N5d-2        9N5d-1    
   33    9N5d0         9N5d+1        9N5d+2        9N1f-3        9N1f-2        9N1f-1        9N1f0         9N1f+1        9N1f+2        9N1f+3    
   34    9N2f-3        9N2f-2        9N2f-1        9N2f0         9N2f+1        9N2f+2        9N2f+3        9N3f-3        9N3f-2        9N3f-1    
   35    9N3f0         9N3f+1        9N3f+2        9N3f+3       10H1s         10H2s         10H3s         10H4s         10H1pz        10H1py     
   36   10H1px        10H2pz        10H2py        10H2px        10H3pz        10H3py        10H3px        10H1d-2       10H1d-1       10H1d0     
   37   10H1d+1       10H1d+2       10H2d-2       10H2d-1       10H2d0        10H2d+1       10H2d+2       11H1s         11H2s         11H3s      
   38   11H4s         11H1pz        11H1py        11H1px        11H2pz        11H2py        11H2px        11H3pz        11H3py        11H3px     
   39   11H1d-2       11H1d-1       11H1d0        11H1d+1       11H1d+2       11H2d-2       11H2d-1       11H2d0        11H2d+1       11H2d+2    
   40   12H1s         12H2s         12H3s         12H4s         12H1pz        12H1py        12H1px        12H2pz        12H2py        12H2px     
   41   12H3pz        12H3py        12H3px        12H1d-2       12H1d-1       12H1d0        12H1d+1       12H1d+2       12H2d-2       12H2d-1    
   42   12H2d0        12H2d+1       12H2d+2    
 
 Maximum number of basis functions per shell:   30
 Total number of basis functions:    423
 
 
 Old basis set for SCF restart
 
   1  N  def2-svp [ 7s 4p 1d | 3s 2p 1d ]
   2  H  def2-svp [ 4s 1p | 2s 1p ]
   3  H  def2-svp [ 4s 1p | 2s 1p ]
   4  H  def2-svp [ 4s 1p | 2s 1p ]
   5  N  def2-svp [ 7s 4p 1d | 3s 2p 1d ]
   6  H  def2-svp [ 4s 1p | 2s 1p ]
   7  H  def2-svp [ 4s 1p | 2s 1p ]
   8  H  def2-svp [ 4s 1p | 2s 1p ]
   9  N  def2-svp [ 7s 4p 1d | 3s 2p 1d ]
  10  H  def2-svp [ 4s 1p | 2s 1p ]
  11  H  def2-svp [ 4s 1p | 2s 1p ]
  12  H  def2-svp [ 4s 1p | 2s 1p ]
 
 Basis functions:
            1             2             3             4             5             6             7             8             9            10
    0    1N1s          1N2s          1N3s          1N1pz         1N1py         1N1px         1N2pz         1N2py         1N2px         1N1d-2    
    1    1N1d-1        1N1d0         1N1d+1        1N1d+2        2H1s          2H2s          2H1pz         2H1py         2H1px         3H1s      
    2    3H2s          3H1pz         3H1py         3H1px         4H1s          4H2s          4H1pz         4H1py         4H1px         5N1s      
    3    5N2s          5N3s          5N1pz         5N1py         5N1px         5N2pz         5N2py         5N2px         5N1d-2        5N1d-1    
    4    5N1d0         5N1d+1        5N1d+2        6H1s          6H2s          6H1pz         6H1py         6H1px         7H1s          7H2s      
    5    7H1pz         7H1py         7H1px         8H1s          8H2s          8H1pz         8H1py         8H1px         9N1s          9N2s      
    6    9N3s          9N1pz         9N1py         9N1px         9N2pz         9N2py         9N2px         9N1d-2        9N1d-1        9N1d0     
    7    9N1d+1        9N1d+2       10H1s         10H2s         10H1pz        10H1py        10H1px        11H1s         11H2s         11H1pz     
    8   11H1py        11H1px        12H1s         12H2s         12H1pz        12H1py        12H1px     
 
 Maximum number of basis functions per shell:   30
 Total number of basis functions:     87
 
 
 Character table for point group C1:
 
          E  
    A     1
 
 Number of basis functions per irrep:
    A     150
 
 
 Calculation of overlap integrals...
 CPU time [min]:     0.186                   Wall time [min]:     0.005
 
 Calculation of the square root of the overlap matrix...
 Minimum eigenvalue of the overlap matrix: 0.119432E-02
 CPU time [min]:     0.204                   Wall time [min]:     0.006
 
 Calculation of kinetic energy integrals...
 CPU time [min]:     0.207                   Wall time [min]:     0.006
 Calculation of dipole moment integrals...
 CPU time [min]:     0.209                   Wall time [min]:     0.006
 Calculation of nuclear attraction integrals...
 CPU time [min]:     0.210                   Wall time [min]:     0.006
 Calculation of overlap integrals...
 CPU time [min]:     0.212                   Wall time [min]:     0.006
 
 Calculation of prescreening integrals...
 CPU time [min]:     0.279                   Wall time [min]:     0.007
 
 Calculation of two-center Coulomb integrals...
   1% done.
  13% done.
  24% done.
  37% done.
  53% done.
  68% done.
  80% done.
  95% done.
 100% done.
 CPU time [min]:     0.292                   Wall time [min]:     0.007
 
 Cholesky decomposition of the two-center matrix...
 Reciprocal of the condition number:  0.109431E-04
 CPU time [min]:     0.307                   Wall time [min]:     0.007
 

 ************************ 2026-02-26 21:26:29 *************************
 Executing scf...

 @scfsetup: integrals calculated directly
            mrcc/integ direct run
 @scfsetup: calculating on full matrices
            not using symmetry adapted basis
 @scfsetup: diis switched on
 @scfsetup: number of steps to extrapolate from  10
 @scfsetup: tolerance in energy deviation    0.100000E-07
            tolerance in density deviation    0.100000E-08
 @scfsetup: maximum number of iterations: 200
 @scfsetup: restricted closed shell hf calc
 @scfsetup: restarting scf from SCFDENSITIES file
 @scfsetup: occupation set:
            from initial orbitals
 @scfsetup: Parameter-set for SCF acceleration: normal
 @scfsetup: diis runs from iteration:   2
 @scfsetup: diis runs to iteration: 200
 @scfsetup: diis runs in every iteration
 @scfsetup: diiswatch is disabled                   
 @scfsetup: diis dtol criteria to switch on:      0.0000E+00
           (or the iteration number below is reached)
 @scfsetup: static damping scheme
            iteration step criteria to turn damping off: 3
 @scfsetup: dynamic level shifting
            tolarance in HOMO-LUMO gap:  0.200
            tolarance in density deviation:     0.0000E+00
            iteration step criteria to turn level shifting off: 8
 Allocation of 46.0 Gbytes of memory...
 ======================================================================
 ITERATION STEP   1
 CPU time [min]:     0.039                   Wall time [min]:     0.021
 

 SCF control                  : initial
 Damping factor/level shift   : 0.000/0.200
 DIIS [start/end/frequency]   :   2 /200 /  1

 Constructing Fock-matrix...
 Inverse square root: The matrix is not positive definite!
 
 Pipek-Mezey localization...
 Step  Convergence
   1   0.890888376059
   2   0.215279128656
   3   0.010931760124
   4   0.000521620514
   5   0.000020400293
   6   0.000000868516
   7   0.000000035645
   8   0.000000001463
 CPU time [min]:     0.067                   Wall time [min]:     0.022
 
 Constructing local fitting domains...
 Maximum number of atoms in fitting domains:    9
 Average number of atoms in fitting domains:    8.4
 
 First step of Coulomb + first step of exchange...
 Exchange contribution is evaluated for MOs 1 to 5.
   1% done.
  13% done.
  24% done.
  37% done.
  48% done.
  67% done.
  78% done.
  92% done.
 100% done.
 Fitting and assembly step of exchange...
 CPU time [min]:     0.185                   Wall time [min]:     0.024
 
 Second step of Coulomb...
   1% done.
  13% done.
  24% done.
  37% done.
  48% done.
  67% done.
  78% done.
  92% done.
 100% done.
 CPU time [min]:     0.215                   Wall time [min]:     0.024
 
 Gradient norm:      1.6834E-01
 RMS of [F,P]:                                         0.00189313460267
 RMS of difference density:                            0.00544847710763
 Gap [au]:  0.44640167
 ALPHA OCC:   5
 BETA  OCC:   5
 
 ***HARTREE-FOCK ENERGY IN STEP   1 IS        -56.1927666510018327 [AU]
 ======================================================================
 ITERATION STEP   2
 CPU time [min]:     0.235                   Wall time [min]:     0.024
 

 SCF control                  : diis
 Damping factor/level shift   : 0.000/0.000
 DIIS [start/end/frequency]   :   2 /200 /  1

 Constructing Fock-matrix...
 
 Pipek-Mezey localization...
 Step  Convergence
   1   0.010151208293
   2   0.009908546265
   3   0.000103914181
   4   0.000002393837
   5   0.000000159002
   6   0.000000017058
   7   0.000000002166
 CPU time [min]:     0.261                   Wall time [min]:     0.025
 
 Constructing local fitting domains...
 Maximum number of atoms in fitting domains:    9
 Average number of atoms in fitting domains:    8.4
 
 First step of Coulomb + first step of exchange...
 Exchange contribution is evaluated for MOs 1 to 5.
   1% done.
  13% done.
  24% done.
  37% done.
  48% done.
  67% done.
  78% done.
  92% done.
 100% done.
 Fitting and assembly step of exchange...
 CPU time [min]:     0.361                   Wall time [min]:     0.027
 
 Second step of Coulomb...
   1% done.
  13% done.
  24% done.
  37% done.
  48% done.
  67% done.
  78% done.
  92% done.
 100% done.
 CPU time [min]:     0.390                   Wall time [min]:     0.027
 
 Gradient norm:      2.2374E-02
 DIIS is running in this iteration step.
 RMS of [F,P]:                                         0.00033641227531
 RMS of difference density:                            0.00078797593890
 Gap [au]:  0.45074917
 ALPHA OCC:   5
 BETA  OCC:   5
 
 ***HARTREE-FOCK ENERGY IN STEP   2 IS        -56.2033960511134438 [AU]
 
 Step comparison  Energy Drift [au]  DIIS error drift  Gradient drift
        1            1.0629E-02         1.5567E-03       1.4596E-01
        2            5.6203E+01         1.0000E-09       1.4596E-01
 ======================================================================
 ITERATION STEP   3
 CPU time [min]:     0.411                   Wall time [min]:     0.027
 

 SCF control                  : diis
 Damping factor/level shift   : 0.000/0.000
 DIIS [start/end/frequency]   :   2 /200 /  1

 Constructing Fock-matrix...
 
 Pipek-Mezey localization...
 Step  Convergence
   1   0.010021310364
   2   0.009984656491
   3   0.000045237512
   4   0.000001151579
   5   0.000000064140
   6   0.000000004695
 CPU time [min]:     0.436                   Wall time [min]:     0.028
 
 Constructing local fitting domains...
 Local fitting domains are unchanged.
 
 First step of Coulomb + first step of exchange...
 Exchange contribution is evaluated for MOs 1 to 5.
   1% done.
  13% done.
  24% done.
  37% done.
  48% done.
  67% done.
  78% done.
  92% done.
 100% done.
 Fitting and assembly step of exchange...
 CPU time [min]:     0.533                   Wall time [min]:     0.029
 
 Second step of Coulomb...
   1% done.
  13% done.
  24% done.
  37% done.
  48% done.
  67% done.
  78% done.
  92% done.
 100% done.
 CPU time [min]:     0.562                   Wall time [min]:     0.030
 
 Gradient norm:      7.9173E-03
 DIIS is running in this iteration step.
 RMS of [F,P]:                                         0.00011512430773
 RMS of difference density:                            0.00028391736063
 Gap [au]:  0.45136257
 ALPHA OCC:   5
 BETA  OCC:   5
 
 ***HARTREE-FOCK ENERGY IN STEP   3 IS        -56.2042432101259806 [AU]
 
 Step comparison  Energy Drift [au]  DIIS error drift  Gradient drift
        2            8.4716E-04         2.2129E-04       1.4456E-02
 ======================================================================
 ITERATION STEP   4
 CPU time [min]:     0.584                   Wall time [min]:     0.030
 

 SCF control                  : diis
 Damping factor/level shift   : 0.000/0.000
 DIIS [start/end/frequency]   :   2 /200 /  1

 Constructing Fock-matrix...
 
 Pipek-Mezey localization...
 Step  Convergence
   1   0.019979734178
   2   0.017578823508
   3   0.000120834127
   4   0.000003974655
   5   0.000000210279
   6   0.000000013578
   7   0.000000001280
 CPU time [min]:     0.609                   Wall time [min]:     0.031
 
 Constructing local fitting domains...
 Local fitting domains are unchanged.
 
 First step of Coulomb + first step of exchange...
 Exchange contribution is evaluated for MOs 1 to 5.
   1% done.
  13% done.
  24% done.
  37% done.
  48% done.
  67% done.
  78% done.
  92% done.
 100% done.
 Fitting and assembly step of exchange...
 CPU time [min]:     0.706                   Wall time [min]:     0.032
 
 Second step of Coulomb...
   1% done.
  13% done.
  24% done.
  37% done.
  48% done.
  67% done.
  78% done.
  92% done.
 100% done.
 CPU time [min]:     0.738                   Wall time [min]:     0.033
 
 Gradient norm:      3.1226E-03
 DIIS is running in this iteration step.
 RMS of [F,P]:                                         0.00002961159035
 RMS of difference density:                            0.00006778895548
[...]
   94    1     0.998417        7
   95    1     0.991038        7
   96    1     0.999804        8
   97    1     0.999395        8
   98    1     0.986579        8
   99    1     1.000000        8
  100    1     0.999999        8
  101    1     0.999995        8
  102    1     0.999881        8
  103    1     0.999697        8
  104    1     0.997926        8
  105    4     0.999612        9   10   11   12
  106    4     0.999851        9   10   11   12
  107    1     0.987923        9
  108    3     0.998281        9   11   12
  109    2     0.991301        9   12
  110    3     0.987462        9   10   11
  111    2     0.983218        9   11
  112    2     0.997460        9   12
  113    2     0.987153        9   10
  114    1     0.994121        9
  115    1     0.995375        9
  116    1     0.994165        9
  117    1     0.999947        9
  118    1     0.999702        9
  119    1     0.999159        9
  120    1     0.999897        9
  121    1     0.999127        9
  122    1     0.999918        9
  123    1     0.999511        9
  124    1     0.998583        9
  125    1     0.999824        9
  126    1     0.998540        9
  127    2     0.998450        9   10
  128    2     0.997679        9   10
  129    2     0.998664        9   10
  130    2     0.980363       10   11
  131    2     0.998799        9   10
  132    2     0.999720        9   10
  133    2     0.992715        9   10
  134    2     0.993791        9   10
  135    2     0.992156        9   10
  136    2     0.998499        9   11
  137    2     0.997698        9   11
  138    2     0.998667        9   11
  139    2     0.999630        9   11
  140    2     0.998859        9   11
  141    2     0.981111       10   11
  142    2     0.992241        9   11
  143    2     0.994893        9   11
  144    2     0.991611        9   11
  145    2     0.998498        9   12
  146    2     0.997696        9   12
  147    2     0.998666        9   12
  148    2     0.998606        9   12
  149    2     0.999898        9   12
  150    2     0.981121       10   12
  151    2     0.990145        9   12
  152    2     0.997749        9   12
  153    2     0.991681        9   12
 CPU time [min]:     0.023                   Wall time [min]:     0.003
 
 C1 point group was detected
 
 Constructing orbital domains...
 CPU time [min]:     0.034                   Wall time [min]:     0.003
 
 Dimensions of the primary domains:     Minimum / Average / Maximum
 
 Number of atoms in domain:                   4       4.2         5
 Number of atoms in occ BP domain:            2       3.8         5
 Number of atoms in PAO BP domain:            1       1.3         4
 Number of atomic orbitals:                  50      55.8        73
 Number of PAOs:                             31      47.2        68
 
 Prescreening pairs...
 CPU time [min]:     0.055                   Wall time [min]:     0.004
 
 Occupied LMO domain definition with Boughton-Pulay completeness:    0.9999500000
 
   MO  Natoms  Completeness   Atoms
    1    6     0.999995        6    7    9   10   11   12
    2    4     0.999995        9   10   11   12
    3    7     0.999997        5    6    7    9   10   11   12
    4    7     0.999999        5    6    7    9   10   11   12
 
 Executing the Boughton-Pulay algorithm...
  with occ MO completeness:    0.9850000000
 
   MO  Natoms  Completeness   Atoms
    1    1     0.998539        9
    2    2     0.999117        9   12
    3    2     0.999094        9   10
    4    2     0.999116        9   11
 CPU time [min]:     0.066                   Wall time [min]:     0.004
 
 Dimensions of the occupied LMO domains:  Minimum / Average / Maximum
 
 Number of atoms in domain:                   4       6.0         7
 Number of atomic orbitals:                  50      75.0        91
 
 Total number of pairs:   6
 Number of distant pairs: 0 (0.0%)
 Sum of multipole based pair energies:      0.0000000000
 
 CPU time [min]:     0.068                   Wall time [min]:     0.004
 Number of strong pairs: 6 (100.0%)
 chtol from minp:   1.000000000000000E-006
        1.93 MB memory is used for domain independent quantities
 
 Calculating the contribution of occupied LMOs...
    using local fitting domains
 
 MO:     1
 Number of atoms in domain:      12
    Number of atoms in PCD:      12
 Number of atomic orbitals:     150
 Number of atoms for local DF:   12
 Number of fitting functions:   423 (100.00%)
 Number of occupied orbitals:     4
 Number of virtual  orbitals:   145
 Number of Cholesky vectors:      9
 MP2 energy in ED [au]:          -0.050656313903
 Number of occupied LNOs:         4 (100.00%)
 Number of virtual  LNOs:        40  (27.59%)
 Number of Cholesky vectors:      8
 MP2 energy in LIS [au]:         -0.050645502316
 Correction for frozen LNO [au]: -0.000010811587     (0.021%)
 Number of NAFs:                109  (25.77%)
 CPU time [min]:     0.912                   Wall time [min]:     0.019
 

 Direct DF-CCSD(T) calculation
 
 Convergence criterion:  1.0E-05
 
 Number of occupied/virtual/auxiliary orbitals:     4    40   109
      9.07 MB is the minimal memory requirement for (T)
      5.75 MB is the minimal memory requirement for CCSD
 
 MP2 correlation energy [au]:       -0.200278494989
 
 LMP2 domain correlation energy contribution [au]:       -0.050641347119
 
 CPU time [min]:     0.965                   Wall time [min]:     0.020
 
 
 Starting CCSD iterations...
 
                     Residual norm       Correlation Energy
 Iteration  1        0.119010356683       -0.209818724952
 Iteration  2        0.032994839020       -0.214609003050
 Iteration  3        0.009871968732       -0.215551964508
 Iteration  4        0.002574410270       -0.215530549263
 Iteration  5        0.000730392873       -0.215545615970
 Iteration  6        0.000218983460       -0.215545624028
 Iteration  7        0.000061628745       -0.215544185546
 
 CCSD iteration has converged in  7 steps.
       16.06 MB memory was utilized by CCSD
 
 T1 diagnostic:      9.818E-03            D1 diagnostic:      2.353E-02
 
 T1 contribution [au]:                         0.000000000000
 CCSD correlation energy [au]:                -0.053883798565
 
 CPU time [min]:     1.078                   Wall time [min]:     0.022
 
 Calculation of (T) correction...
 
 Laplace threshold, nquadmin:  1.00E-03   4
 Number of quadrature points:    4
 
        9.17 MB memory is utilized for (T)

 0%       25%       50%       75%       100%
 |---------|---------|---------|---------| 
 
 (T) correction [au]:                   -0.001523433126
 CCSD(T) correlation energy [au]:       -0.055407231691
 
 CPU time [min]:     1.126                   Wall time [min]:     0.022
 
 MO:     2
 Number of atoms in domain:      12
    Number of atoms in PCD:      12
 Number of atomic orbitals:     150
 Number of atoms for local DF:   12
 Number of fitting functions:   423 (100.00%)
 Number of occupied orbitals:     4
 Number of virtual  orbitals:   145
 Number of Cholesky vectors:      9
 MP2 energy in ED [au]:          -0.050004923478
 Number of occupied LNOs:         4 (100.00%)
 Number of virtual  LNOs:        38  (26.21%)
 Number of Cholesky vectors:      7
 MP2 energy in LIS [au]:         -0.049994135927
 Correction for frozen LNO [au]: -0.000010787551     (0.022%)
 Number of NAFs:                108  (25.53%)
 CPU time [min]:     1.711                   Wall time [min]:     0.032
 

 Direct DF-CCSD(T) calculation
 
 Convergence criterion:  1.0E-05
 
 Number of occupied/virtual/auxiliary orbitals:     4    38   108
      8.21 MB is the minimal memory requirement for (T)
      5.39 MB is the minimal memory requirement for CCSD
 
 MP2 correlation energy [au]:       -0.200207013663
 
 LMP2 domain correlation energy contribution [au]:       -0.049988401902
 
 CPU time [min]:     1.762                   Wall time [min]:     0.033
 
 
 Starting CCSD iterations...
 
                     Residual norm       Correlation Energy
 Iteration  1        0.118920300172       -0.209748212955
 Iteration  2        0.032887888775       -0.214610916244
 Iteration  3        0.009347714613       -0.215454551643
 Iteration  4        0.002353763334       -0.215438566703
 Iteration  5        0.000594422774       -0.215456199954
 Iteration  6        0.000160392685       -0.215455547359
 Iteration  7        0.000036495263       -0.215455223001
 
 CCSD iteration has converged in  7 steps.
       13.81 MB memory was utilized by CCSD
 
 T1 diagnostic:      9.428E-03            D1 diagnostic:      2.230E-02
 
 T1 contribution [au]:                         0.000000000000
 CCSD correlation energy [au]:                -0.053985871797
 
 CPU time [min]:     1.866                   Wall time [min]:     0.035
 
 Calculation of (T) correction...
 
 Laplace threshold, nquadmin:  1.00E-03   4
 Number of quadrature points:    4
 
        8.30 MB memory is utilized for (T)

 0%       25%       50%       75%       100%
 |---------|---------|---------|---------| 
 
 (T) correction [au]:                   -0.001357761237
 CCSD(T) correlation energy [au]:       -0.055343633034
 
 CPU time [min]:     1.911                   Wall time [min]:     0.035
 
 MO:     3
 Number of atoms in domain:      12
    Number of atoms in PCD:      12
 Number of atomic orbitals:     150
 Number of atoms for local DF:   12
 Number of fitting functions:   423 (100.00%)
 Number of occupied orbitals:     4
 Number of virtual  orbitals:   145
 Number of Cholesky vectors:      9
 MP2 energy in ED [au]:          -0.050027868747
 Number of occupied LNOs:         4 (100.00%)
 Number of virtual  LNOs:        39  (26.90%)
 Number of Cholesky vectors:      7
 MP2 energy in LIS [au]:         -0.050017262811
 Correction for frozen LNO [au]: -0.000010605936     (0.021%)
 Number of NAFs:                109  (25.77%)
 CPU time [min]:     2.522                   Wall time [min]:     0.046
 

 Direct DF-CCSD(T) calculation
 
 Convergence criterion:  1.0E-05
 
 Number of occupied/virtual/auxiliary orbitals:     4    39   109
      8.64 MB is the minimal memory requirement for (T)
      5.58 MB is the minimal memory requirement for CCSD
 
 MP2 correlation energy [au]:       -0.200248286133
 
 LMP2 domain correlation energy contribution [au]:       -0.050010575217
 
 CPU time [min]:     2.572                   Wall time [min]:     0.046
 
 
 Starting CCSD iterations...
 
                     Residual norm       Correlation Energy
 Iteration  1        0.118986709618       -0.209787500173
 Iteration  2        0.032906590079       -0.214642379406
 Iteration  3        0.009406052913       -0.215498633392
 Iteration  4        0.002370415666       -0.215481271327
 Iteration  5        0.000597430552       -0.215499204228
 Iteration  6        0.000163919209       -0.215498107949
 Iteration  7        0.000036356193       -0.215497842698
 
 CCSD iteration has converged in  7 steps.
       14.91 MB memory was utilized by CCSD
 
 T1 diagnostic:      9.477E-03            D1 diagnostic:      2.244E-02
 
 T1 contribution [au]:                         0.000000000000
 CCSD correlation energy [au]:                -0.053999682190
 
 CPU time [min]:     2.678                   Wall time [min]:     0.048
 
 Calculation of (T) correction...
 
 Laplace threshold, nquadmin:  1.00E-03   4
 Number of quadrature points:    4
 
        8.74 MB memory is utilized for (T)

 0%       25%       50%       75%       100%
 |---------|---------|---------|---------| 
 
 (T) correction [au]:                   -0.001359574447
 CCSD(T) correlation energy [au]:       -0.055359256637
 
 CPU time [min]:     2.723                   Wall time [min]:     0.049
 
 MO:     4
 Number of atoms in domain:      12
    Number of atoms in PCD:      12
 Number of atomic orbitals:     150
 Number of atoms for local DF:   12
 Number of fitting functions:   423 (100.00%)
 Number of occupied orbitals:     4
 Number of virtual  orbitals:   145
 Number of Cholesky vectors:      9
 MP2 energy in ED [au]:          -0.049999477553
 Number of occupied LNOs:         4 (100.00%)
 Number of virtual  LNOs:        39  (26.90%)
 Number of Cholesky vectors:      7
 MP2 energy in LIS [au]:         -0.049991322557
 Correction for frozen LNO [au]: -0.000008154996     (0.016%)
 Number of NAFs:                108  (25.53%)
 CPU time [min]:     3.321                   Wall time [min]:     0.059
 

 Direct DF-CCSD(T) calculation
 
 Convergence criterion:  1.0E-05
 
 Number of occupied/virtual/auxiliary orbitals:     4    39   108
      8.62 MB is the minimal memory requirement for (T)
      5.56 MB is the minimal memory requirement for CCSD
 
 MP2 correlation energy [au]:       -0.200324314290
 
 LMP2 domain correlation energy contribution [au]:       -0.049984443006
 
 CPU time [min]:     3.372                   Wall time [min]:     0.060
 
 
 Starting CCSD iterations...
 
                     Residual norm       Correlation Energy
 Iteration  1        0.118980029751       -0.209862850447
 Iteration  2        0.032921931034       -0.214697071777
 Iteration  3        0.009510003909       -0.215578095410
 Iteration  4        0.002425939175       -0.215556877532
 Iteration  5        0.000629239666       -0.215574436437
 Iteration  6        0.000176971396       -0.215573288745
 Iteration  7        0.000041505735       -0.215572700542
 
 CCSD iteration has converged in  7 steps.
       14.89 MB memory was utilized by CCSD
 
 T1 diagnostic:      9.593E-03            D1 diagnostic:      2.287E-02
 
 T1 contribution [au]:                         0.000000000000
 CCSD correlation energy [au]:                -0.053983651655
 
 CPU time [min]:     3.477                   Wall time [min]:     0.062
 
 Calculation of (T) correction...
 
 Laplace threshold, nquadmin:  1.00E-03   4
 Number of quadrature points:    4
 
        8.72 MB memory is utilized for (T)

 0%       25%       50%       75%       100%
 |---------|---------|---------|---------| 
 
 (T) correction [au]:                   -0.001358448212
 CCSD(T) correlation energy [au]:       -0.055342099867
 
 CPU time [min]:     3.522                   Wall time [min]:     0.063
 
 **********************************************************************
 Dimensions of the extended domains:    Minimum / Average / Maximum
 
 Number of atoms in domain:                  12      12.0        12
 Number of atomic orbitals:                 150     150.0       150
 Number of fitting functions:               423     423.0       423
 Number of occupied localized MOs:            4       4.0         4
 Number of PAOs:                            145     145.0       145
 Number of occupied LNOs:                     4       4.0         4
 Number of virtual  LNOs:                    38      39.0        40
 Number of NAFs:                            108     108.5       109
 
 **********************************************************************
 Distant (and weak) pair contributions, corrections
 
 Sum of pair energies [au]:                     0.000000000000    (0.000%)
 Sum of energy corrections [au]:               -0.000040360070    (0.020%)
 Pair energies + LNO corrections [au]:         -0.000040360070
 Sum of LMP2 contributions [au]:               -0.200688583681
 
 **********************************************************************
  Time of manipulations in the EDs:      max CPU/Wall [s]  all CPU/Wall [min]
 
 PD construction & multipole pair E       4.00     0.09     0.07     0.00
 Construct MO basis of the ED             1.34     0.02     0.08     0.00
 (mu,nu|P) evaluation & trf 2 (ai|P)      4.19     0.07     0.26     0.00
 Evaluate MP2 energy of the ED            0.22     0.00     0.01     0.00
 Transformations to the LNO basis         0.78     0.01     0.05     0.00
 Build W_PQ (Jai or Jpi part)             1.53     0.04     0.03     0.00
 Evaluate MP2 energy of the LIS           0.15     0.00     0.01     0.00
 (mu,nu|P) evaluation & trf 2 J(abQ)     33.71     0.61     1.67     0.03
 Total of the above for all EDs          41.92     0.76     2.11     0.04
 
 **********************************************************************
 Maximum memory requirement [MB]:       
 
 PD construction & multipole pair E          2.6
 AO integral evaluation in the EDs         315.2
 (mu,nu|P) evaluation & trf 2 (aI|P)       333.1
 Evaluate MP2 energy in the EDs             13.9
 Transformation to the LNO basis             6.1
 (mu,nu|P) to Jab transformation           319.9
 Evaluate MP2 energy in the LIS              8.9
 Minimum requirement for LIS CCSD            5.7
 Actually allocated  for LIS CCSD           16.1
 Minimum requirement for LIS (T)             9.1
 Actually allocated  for LIS (T)             9.2
 
 ======================================================================
 ======================================================================
 
 
 
 ======================================================================
 ======================================================================
 
 Final local CC results:
 
 Minimum number of correlated electrons:         8       (100.0%)
 Maximum number of correlated electrons:         8       (100.0%)
 Average number of correlated electrons:         8.0     (100.0%)
 Minimum number of correlated orbitals:         42       ( 28.2%)
 Maximum number of correlated orbitals:         44       ( 29.5%)
 Average number of correlated orbitals:         43.0     ( 28.9%)
 
 CPU time for integral calculations [min]:                  0.316
 Wall time for integral calculations [min]:                 0.007
 
 CPU time for SCF calculation [min]:                        2.314
 Wall time for SCF calculation [min]:                       0.071
 
 CPU time for orbital localization [min]:                   0.003
 Wall time for orbital localization [min]:                  0.017
 
 CPU time for integral transformations [min]:               2.764
 Wall time for integral transformations [min]:              0.050
 
 Reference energy [au]:                                   -56.204390501101
 
 LMP2 correlation energy [au]:                             -0.200688583681
 Total LMP2 energy [au]:                                  -56.405079084782
 
 Total MP2 correction for dropped NAFs [au]:               -0.000023456366
 Total MP2 correction [au]:                                -0.000063816437
 
 CPU time for CCSD calculations [min]:                      0.599
 Total CPU time for CCSD [min]:                             5.995
 Wall time for CCSD calculations [min]:                     0.010
 Total wall time for CCSD [min]:                            0.155
 
 CCSD correlation energy [au]:                             -0.215853004208
 Total CCSD energy [au]:                                  -56.420243505308
 CCSD correlation energy + 0.5 MP2 corrections [au]:       -0.215884912426
 Total LNO-CCSD energy with MP2 corrections [au]:         -56.420275413527
 
 CPU time for (T) corrections [min]:                        0.182
 Total CPU time for CCSD(T) [min]:                          6.176
 Wall time for (T) corrections [min]:                       0.003
 Total wall time for CCSD(T) [min]:                         0.158
 
 Total (T) correlation energy contribution [au]:           -0.005599217022
 Total (T) correlation energy+0.5 MP2 correction [au]:     -0.005631125241
 CCSD(T) correlation energy [au]:                          -0.221452221230
 Total CCSD(T) energy [au]:                               -56.425842722331
 CCSD(T) correlation energy + MP2 corrections [au]:        -0.221516037667
 Total LNO-CCSD(T) energy with MP2 corrections [au]:      -56.425906538768
 
 ======================================================================
 ======================================================================
 
 ************************ 2026-02-26 21:26:39 *************************
                      Normal termination of mrcc.
 **********************************************************************
